<VTKFile type="PolyData" version="1.0" byte_order="LittleEndian" header_type="UInt64">
  <PolyData>
    <Piece NumberOfPoints="10000" NumberOfVerts="0" NumberOfLines="0" NumberOfStrips="0" NumberOfPolys="9801">
      <PointData>
        <DataArray type="Float32" Name="zvalue" NumberOfComponents="1" format="ascii" RangeMin="1.0249819040296975" RangeMax="1.2743078133022525">
          1.2434964672120556 1.2169492274126652 1.2002034329907338 1.2162809051179135 1.213830390772364 1.2204264301384733
          1.2164501626261666 1.2018826015253954 1.2191936255224227 1.2087448918705435 1.229019265169483 1.1988551347506957
          1.2105400190676263 1.217684178961631 1.19867133172921 1.204748289006117 1.180188399428379 1.1875277936181088
          1.2036826878977849 1.1935610906639191 1.2057041023868575 1.2003411491775187 1.204038295765004 1.1947773609645693
          1.2105001835019578 1.19412732851949 1.2038243825148447 1.2083150624150234 1.2206544144451048 1.1957419256112074
          1.2135808467997498 1.2020739345897031 1.2119917260422313 1.20597188772374 1.214071234082302 1.2074220894229806
          1.2014296548381862 1.2126748039760067 1.2064627947389568 1.2085157636237764 1.2001876593534704 1.2129598119991347
          1.2148137016553968 1.216087134070743 1.208803397160347 1.212483744070657 1.209467472325311 1.208188283374401
          1.2129310816314045 1.1964547544193729 1.2014968211901735 1.199279390554619 1.2057823985889984 1.1963345926705458
          1.1980469300191006 1.2017611619720954 1.2050906437804554 1.2001897558184587 1.2013235433167995 1.1951933491382851
          1.1932575003075403 1.197704537251791 1.2076659346416163 1.1947498792563171 1.2157321948890465 1.2131171870296034
          1.2011849080037247 1.2050289128211893 1.2019633905845537 1.2090413479373308 1.2042593281010439 1.2162576042702327
          1.211589185095841 1.2175196180360097 1.2159827998310073 1.2219916768228598 1.2163284165347303 1.2213705310795964
          1.2232754480754622 1.2203296123655027 1.2296615498143888 1.2293837733682438 1.2279587830692804 1.228657136197714
          1.230232888998911 1.2330344196037357 1.2350588347929559 1.225232824643345 1.2338984839709202 1.227817373545861
          1.2311797047534818 1.2350981685201146 1.2353487157090723 1.2308984646639116 1.2323332637089595 1.2365856472212957
          1.2297638881349624 1.2322318624765027 1.229584759570687 1.2320644973607264 1.2460117993945607 1.234277962374686
          1.2211800568923905 1.221205373526163 1.2091060410011265 1.212642888739808 1.2159251088665757 1.2114000191326346
          1.1858518797075275 1.1981912023172152 1.1866855121068 1.1946596831265262 1.195665781877736 1.2008178081414247
          1.18799899876909 1.1948347835305166 1.2031295820163255 1.1962211201455923 1.2010022501262407 1.1999053287594468
          1.1944037775342922 1.2004279703362046 1.1945839551213702 1.2074684127584234 1.1877863515008251 1.1994849811508308
          1.1931459339524204 1.19623611312495 1.200545918747294 1.209002925776967 1.194624039912839 1.1915515639488765
          1.2027374004535911 1.1984465793665797 1.1874744655546479 1.199157433199139 1.2066519909334272 1.202604239694056
          1.2070841186031198 1.1923550256806152 1.197271166309378 1.2152151874205468 1.192832489599677 1.208027630296001
          1.2077032039248048 1.2125656313571398 1.1991544146198698 1.2109545032815028 1.2052410613133409 1.200712550190229
          1.1999363748075649 1.1993345934668347 1.2031328033771376 1.1916288109000202 1.1986926156110744 1.198112640419475
          1.1926826967157798 1.1961690682545958 1.1977680030778184 1.1881277164890411 1.1901601990110264 1.1947363943909235
          1.1951797980944685 1.1940939706459406 1.2054928591275202 1.2000273026557264 1.2024484822026036 1.20036945391874
          1.2037496744805576 1.206887159269508 1.2077269828544133 1.206815368571328 1.2137876475942264 1.2111356649474427
          1.2316145351959835 1.2141445590325788 1.2262480266157516 1.2187475942452783 1.2247733744223062 1.2214597978762085
          1.2212676886634495 1.2309597052878527 1.2285730946548756 1.2263607585789609 1.2222957846659723 1.2298692547813488
          1.2299832866630636 1.228187179123329 1.2339046065167996 1.2258130952421202 1.2320905413465024 1.2307797811321421
          1.2400217966864253 1.2317879789777257 1.229737225832315 1.2382906981236041 1.238488575584766 1.2426420775196463
          1.2257362538440018 1.2348507694868405 1.2261731004285215 1.2167989861621313 1.2331387961592053 1.2045082206192834
          1.2299814259611401 1.193049583992168 1.2218786830646402 1.1961333490413306 1.1981668790046647 1.1983194636531933
          1.2039998382432007 1.170910682813454 1.1851078345777115 1.1972897006163807 1.1876331470859613 1.2042283301671806
          1.1826424251750993 1.2037099037504053 1.188935842379948 1.192711978580297 1.2083955756041114 1.1995002773217187
          1.2044984482592613 1.1956956833001913 1.2007066946267861 1.199407383067821 1.2003534890807783 1.2126366771690713
          1.1923376370879548 1.1822297490543099 1.2099849708008152 1.2051822472154896 1.2059864282803239 1.2001300192040663
          1.211143256430306 1.2025952222512093 1.2003528214808334 1.1838407758879388 1.1974581353659175 1.195501488405545
          1.18823128472514 1.2009369086930528 1.2028876353215274 1.2036724781847337 1.200565526420716 1.2052837927685387
          1.1946779699050945 1.181253534189286 1.199360562645158 1.1928453998583606 1.196753326962464 1.1961791746500705
          1.1947748849708533 1.190655999467999 1.1910720750383215 1.1915659174008204 1.1904114070701133 1.1922247666993078
          1.1911808230044758 1.1895530626485045 1.1912040345631203 1.1858708162376759 1.193563670848382 1.1992467574598729
          1.1969237753165696 1.1966886655439835 1.1903247559756718 1.19570622719686 1.2006439532700215 1.2021219968165013
          1.205835773007415 1.2131407099987865 1.202435544894827 1.206856335402821 1.2084287303983587 1.2149217660260103
          1.2095758243321868 1.2251263730700972 1.219260193963212 1.2244175531193175 1.2228481776780091 1.2221127143528359
          1.2281353056583233 1.2257431684119258 1.227513424494194 1.2285018321095345 1.2284226145257244 1.230869319048005
          1.2306706244113637 1.2301322152150194 1.2289811286402783 1.232555943220382 1.2336631818193065 1.2308563752256874
          1.2346922488277075 1.2328430620814865 1.2400684832072095 1.2342250090857512 1.2348246863261148 1.2356020898987492
          1.2137891278773316 1.2270398820917132 1.21428901242982 1.2174274935825755 1.2160727113797074 1.2180282631764747
          1.2095579004358976 1.1916258926133048 1.193462959211516 1.2052676990396327 1.1943520137090153 1.2113899092075755
          1.195921321498671 1.193551022821659 1.1862983586131621 1.1868109718326119 1.2009238155011037 1.1941762075685818
          1.1873743314148124 1.1991895876899565 1.1893175778746006 1.1968303460438154 1.1847901686445639 1.20355123434529
          1.1888047596104532 1.1949300161526164 1.1942300317106915 1.199284916731907 1.1912805694841277 1.2027623862630097
          1.2013805123401666 1.1824813199962958 1.184655828639873 1.178075581405355 1.1828943525444486 1.1953630030558122
          1.1724785484010927 1.1865850223662393 1.1866923891133965 1.1989775674680194 1.184816212067146 1.2025924933664573
          1.195267313819747 1.1877004686103008 1.1972574345713518 1.1924545465809766 1.1938940023338944 1.196615288681893
          1.193292028334965 1.194378112602041 1.2015717694116388 1.1982280854308232 1.1827859854544123 1.186256701021018
          1.1900725905509897 1.1964413069378201 1.1940079992860242 1.19425213257254 1.1918290733677577 1.191138694532808
          1.1873230824172045 1.1914466369991354 1.1868567755184807 1.1891478388530918 1.19044434426236 1.195779310220845
          1.1937438192014134 1.1945635294538517 1.1980445196682943 1.1923139597498655 1.1998338825613912 1.2067932369402812
          1.209474201545222 1.2145516710079598 1.2024948932379311 1.2113071445522337 1.2144297006270905 1.2135619673234461
          1.2111124782561535 1.2174351433049493 1.2222920696536417 1.215528984624289 1.2200572480360299 1.226756748030878
          1.2261531909858443 1.23036393994664 1.2277577072402905 1.2231937034381632 1.2357294804668792 1.2325698798963045
          1.233518465682367 1.2353824652143348 1.2324500181354276 1.2344781269801959 1.2258816526601692 1.2319306852543397
          1.2337414229957488 1.23459877949651 1.2350463888440393 1.2365326290618228 1.2064907341069058 1.2209223616379505
          1.210661619289462 1.2189095785618214 1.2008048855960296 1.220876369035297 1.2019449713681474 1.2032683058894849
          1.1945008274852054 1.1917269197572016 1.1877108136220778 1.1865687995458813 1.1889478373524864 1.1887961034184036
          1.189734268627245 1.197148041978564 1.1937034895450187 1.2053791926180155 1.1906789695220044 1.1791666510779555
          1.2012656602109733 1.1830348601596286 1.1890687374800748 1.1796664944456585 1.1776438179122672 1.184507796030642
          1.1785362861873072 1.1919474829079808 1.1683121338705256 1.1953475496801758 1.1914488025685726 1.195808314061303
          1.1798665875314525 1.1868448427507787 1.1775346599842769 1.1951540159689205 1.1708573114032281 1.1872614230541978
          1.1894741312073214 1.1725975886419495 1.186393111887965 1.1813336073368514 1.1891410295280158 1.1879563072215253
          1.1751294739986096 1.19464796583996 1.1873991150027492 1.191614581456279 1.1832801241249578 1.1836275855291145
          1.1875617638713967 1.192396668792187 1.1835600841444511 1.1877996469145338 1.1889435389285057 1.186677077702922
          1.1879474183707857 1.1844632630908094 1.1846590298518356 1.1865815653045593 1.1848972689728343 1.1879081771115394
          1.1880404021603348 1.195910094876287 1.1824584312657367 1.1928887727673525 1.194027396041371 1.1975924078069893
          1.193543332743211 1.1931351316497076 1.195417484760769 1.1962822007125948 1.201243448445644 1.2054379665658406
          1.2150979310513927 1.2049391031893602 1.213198427166467 1.212994283097881 1.2101702391127596 1.2211781937990487
          1.2238762074799068 1.2163734319611048 1.221414160343396 1.2170064569102523 1.230653645727488 1.2258100510914063
          1.2255324555782414 1.2237110495209642 1.223879229476886 1.2244928351866593 1.236825689181924 1.2343479263635218
          1.229812401246442 1.2355014423694128 1.2333004249330244 1.2384576671543814 1.2285389610108808 1.2340610588598784
          1.239485121192028 1.236543886482478 1.2261992143565816 1.2009678079463768 1.2121472245113614 1.1911173217146775
          1.2030595470670817 1.2123228575461273 1.1920977912820165 1.1815281955288752 1.1734528547910361 1.188923135684305
          1.176854511930593 1.187598684854252 1.1813772263593028 1.1959905098974395 1.2010352348802644 1.1846184633943015
          1.1928328295357955 1.1826613568186162 1.1848657306123105 1.1759468884269322 1.1955149918110002 1.1988396777316472
          1.190653861174846 1.211276747748802 1.185339627071638 1.1864371731791423 1.2021007786349813 1.1950622542065221
          1.1720623276120186 1.183865690990858 1.1905113390643864 1.1736046489296892 1.2025999995722023 1.18866260557261
          1.174645822402842 1.1816001058123464 1.194326051350743 1.1867237534855652 1.1901371880287857 1.1830599779426956
          1.1785453251175468 1.1941298927967565 1.1805065564448778 1.1855457646510041 1.179615208009531 1.1785700056765376
          1.173536740381051 1.188910653921502 1.1798541387561203 1.176725973922955 1.1845968340837116 1.178571869166069
          1.1814780871477282 1.178879708112704 1.1814128254462521 1.1754994791300468 1.1850674977057853 1.1826473206942716
          1.172682992465145 1.1820542989710314 1.1799276494975341 1.177181379268968 1.187004460835875 1.1866788097088323
          1.1801395130793961 1.1907701994245496 1.1890847382993404 1.1936471799468553 1.1928233474445455 1.1984532752762473
          1.192557342125728 1.20307952789458 1.2013302199903249 1.2070176545129763 1.2067742859407289 1.2023925984234562
          1.2066059579147617 1.2118841748122329 1.2120052001747865 1.2160410457413706 1.215359486255792 1.2243138461719307
          1.2153774266816773 1.2207376400015546 1.2286895352815228 1.2279511854956604 1.2294863771793783 1.2226691748219896
          1.2253243238855889 1.228874733498619 1.233004349575724 1.2254483470271709 1.2344390324978982 1.23340655167582
          1.237554938061223 1.2298010050589057 1.2391331506749605 1.2430253311239376 1.2280060431500468 1.2346937054234737
          1.2159908422369603 1.1988718424411893 1.213156450730606 1.2110604855615523 1.2185266962884094 1.1839113597698512
          1.1899289845544183 1.1997840869723457 1.219029975118645 1.1867925915588042 1.1868767043782724 1.1818498681085183
          1.2012185752730034 1.1850478316151565 1.1784813098300433 1.1911836991226026 1.1680559716356629 1.180494796624003
          1.1918709048987226 1.1863021879377207 1.1973139444691026 1.1860090493274844 1.1909710251892858 1.2001829997289037
          1.1860117218932051 1.184392492041437 1.1806855361499686 1.1923148425946606 1.1862080958765342 1.2035256170647126
          1.1853939872232644 1.1887822475456378 1.1603466855122118 1.1837988698244244 1.1838127000412744 1.1857091595677707
          1.1873825708624097 1.1760450621345628 1.1708468571045054 1.1776391475129577 1.169217579236703 1.173176460388893
          1.1772605082478305 1.178704835586617 1.187827334827646 1.1799712053410722 1.1871930900312821 1.1732835947808882
          1.1715501344957995 1.1840303091935918 1.1827438159838957 1.178412542940965 1.1887912161225147 1.1750188558589956
          1.1790681673998518 1.1751801223471732 1.1809333384902938 1.1760120444214617 1.1753754993458494 1.1818627893119162
          1.182916698052336 1.1783527973168577 1.18166223956448 1.1818268844801332 1.1849562093587773 1.1940623020291183
          1.195916678004119 1.1875180647670767 1.1921326054579182 1.1938671538322565 1.1941264111567302 1.1931622311816046
          1.1955048642740034 1.2025087538100951 1.200329871564402 1.1990517703149666 1.2037488302900883 1.2051632513730817
          1.2000273601023932 1.206742923636891 1.218811465118086 1.2121586746906912 1.2119573268014463 1.2159229532533593
          1.2168419326941857 1.222895630769495 1.220347069809281 1.2189062807872824 1.2300620253289116 1.229315818260387
          1.221718450864548 1.2332138899638025 1.2321647195241114 1.228191263258995 1.2305352813879629 1.230581556234609
          1.234288606820007 1.2388802276400694 1.2343380388608556 1.2374935466750985 1.21775354989712 1.209592055138867
          1.203862768097917 1.1997445460863445 1.1876948635029998 1.2026321796420492 1.208403088223612 1.1823056582266718
          1.1943287451121625 1.1921278647214664 1.182975090592074 1.185635671947943 1.1864949820261628 1.1774850047530372
          1.173899308285225 1.1612086224294114 1.1901625921807981 1.193802153774936 1.1963600921241575 1.1812967103918692
          1.1766803212783519 1.1946125532429333 1.1789597295453775 1.1764185078425042 1.1735158360070252 1.1852274434442522
          1.1790772528537707 1.1884658340629206 1.1821692514944646 1.1637879592494411 1.1756445687985235 1.1790806772931903
          1.1740052523760462 1.1684696386553155 1.1718076857219855 1.1647537610549885 1.162861141436305 1.1736896424043086
          1.1669374447341025 1.1656646621713598 1.1742769748504815 1.1689951520307584 1.1747195991579278 1.1666432063589443
          1.1830271910393668 1.173601050850845 1.1787024808592395 1.174051218920318 1.1706271436793148 1.163911210005941
          1.1803497206083213 1.177762296297335 1.1792806016962272 1.1824865305440626 1.1791030495199761 1.1732416865011572
          1.178111599157729 1.178459004400415 1.184774259366819 1.182432319056926 1.1836005694625356 1.1772714613620847
          1.1863551053720156 1.1835235028703077 1.1812619193424636 1.1765493496145203 1.1823962007945932 1.182384996705909
          1.191269124028396 1.1910910144086593 1.1868877854965147 1.1895687509543473 1.1966183653729239 1.198084962427221
          1.199022378796699 1.2026501278356418 1.207230750385574 1.1982060866553155 1.2081030095352792 1.2084384715465015
          1.211425300597571 1.2098677394594108 1.2190092676893785 1.2227657382818422 1.2197179168962382 1.213695242426982
          1.217438509446531 1.219083238941481 1.2235150797066736 1.2261921980105486 1.2207242548846293 1.2310001195390148
          1.2318627499795682 1.229915358345595 1.2251005392436947 1.2239359515772563 1.2343296847122311 1.2275288358181697
          1.2337993101665183 1.2401532474423909 1.2071284469325891 1.1847390495291064 1.2076321131683097 1.1996356192003848
          1.2049416899110261 1.2069247285839348 1.1734285638206057 1.2146360287494606 1.1985918151657124 1.1882202475489405
          1.192478893468397 1.18774440691035 1.1627122171675384 1.204813167483884 1.1902800607681927 1.1822859158177432
          1.1876357426110167 1.1759371345225733 1.1727990715188152 1.17857570618279 1.1845043974189238 1.1826267593526942
          1.1770704955987406 1.1660055710236537 1.1924365012840101 1.17561948480993 1.1669892741589867 1.1972434074098703
          1.1728642337078108 1.1664039718014565 1.1611017841760236 1.1816851977222291 1.1522707393134373 1.176999206746148
          1.1621340413289212 1.1682744716470814 1.1697613813458243 1.149986558250108 1.1722783889106498 1.1664595790040146
          1.158755641691323 1.1688888535800468 1.1626030794077993 1.1822632492097218 1.1600825479686954 1.1602776464480888
          1.1652121816191323 1.1777281457094444 1.1700686440187436 1.177431131069361 1.1735569290936043 1.1630929171186934
          1.1729947740543907 1.1811140127760442 1.1805330777748528 1.1721887788295835 1.1713506758383756 1.1659064661293335
          1.1735468052941738 1.1753989923623158 1.177935975583758 1.177940747373746 1.1760687821399138 1.1737362206006712
          1.1771963665769225 1.1806525175546174 1.176291443266783 1.1857223296569743 1.1863431010985088 1.1848614291869384
          1.186217786515552 1.1917760393596568 1.195245473486529 1.1944308571510098 1.198130936108685 1.1983872420103383
          1.1998765512355198 1.2050669163938512 1.206378336903218 1.2146071554241884 1.210958864387686 1.2048968786567753
          1.2016944936876826 1.21507521095136 1.2136929120007893 1.2109499787913056 1.223627145308976 1.2152992204742008
          1.2179028507540755 1.2211049679662906 1.2252794365293727 1.2237388196753922 1.2310337306988475 1.218078519654135
          1.234558004015391 1.2316075080399216 1.22811899602906 1.2344940418472294 1.2353602221378701 1.2442234045524583
          1.2100016499804218 1.205672071004497 1.2185632880871156 1.1987383528528717 1.198651356106372 1.1943871033468492
          1.1746403646069556 1.1966191795776313 1.183416401324441 1.1760871031604765 1.1812597389167263 1.1748242928549837
          1.2034420128653776 1.1931953598678202 1.1711231347414603 1.1865378888497005 1.1875226674415817 1.1855808149605325
          1.193891712002755 1.165729064721536 1.1900641556559537 1.1859789442382183 1.1679118306815761 1.1736289282503496
          1.1762824795347597 1.1752359724284327 1.178369198000214 1.1671891815767736 1.1823995042592705 1.192387558831345
          1.1615656873876419 1.1717290326652905 1.1758939984684653 1.1657053880140886 1.1627677468014113 1.1801457100728068
          1.1561609643606674 1.1591328835153525 1.1635367052157117 1.1668001576284142 1.157311658094423 1.156459727889533
          1.1476277746365702 1.1646852190103087 1.1615853207694227 1.1718539380400292 1.1640395372565369 1.1605877692989597
          1.1768076010369963 1.1675032739376152 1.1578616420084007 1.16996831300809 1.160051876352676 1.1724479150943061
          1.1593942954999723 1.1729102453512734 1.1715995533647456 1.1764088247092896 1.1727131831709654 1.1720021127526214
          1.1762431308155474 1.170010691675251 1.1785608422463902 1.1678853803399942 1.1753892919919626 1.17352511952019
          1.184227386315515 1.1806779441659163 1.1784308944481183 1.1860302985763609 1.1846576808229867 1.1851686283681777
          1.1802259745151078 1.1901224949531743 1.1882142529815227 1.1893821951104206 1.199222840699225 1.2036029964229509
          1.1995632054197347 1.2002843003849002 1.2087382218081246 1.2006300452968408 1.2075103150319857 1.2158758678474
          1.2085569954887971 1.2151948676460698 1.2193480786505853 1.2218393950014363 1.2126464128672376 1.2215744975262346
          1.2146401686064399 1.226788264929346 1.2225723633311778 1.2289610238885216 1.2265521646685436 1.225929178939387
          1.227417975183574 1.2314652636106695 1.2334248310091187 1.231300672348784 1.2068850767984927 1.2024322424876768
          1.2142643837657754 1.2086018423787706 1.206647653804671 1.1786232238102556 1.1919999649217734 1.1912886174444952
          1.198943450856042 1.1944214551911878 1.1810315215630278 1.1839955547456746 1.1805659758409524 1.1711264682655536
          1.1716784677743746 1.179861612436182 1.1782733437556554 1.1860066971724528 1.161580977728435 1.1945385256739511
          1.1677845630490977 1.168968115517227 1.1576691206133969 1.1607918057802968 1.1779554883903811 1.1642427888699418
          1.1750459648771037 1.1830415797214195 1.1629172291778782 1.1532893567784985 1.1604234896060452 1.1619716043290285
          1.1721781464670138 1.1545141384224782 1.1607742703462665 1.1797897968530293 1.1573755667001027 1.1715979058621968
          1.148955712334408 1.1781452081951471 1.1739855665222518 1.1732802315624333 1.1653569798306325 1.153060851732199
          1.1681362856133153 1.1606873354594782 1.1555113975169695 1.1625112039251952 1.1428983234640804 1.165354638067028
          1.158987450529415 1.1731160543969499 1.1532095947708296 1.1625159082384382 1.1643507953016874 1.1623661943571915
          1.1669031525596514 1.1641896855852352 1.1743167694025831 1.1622690696565123 1.17332524317384 1.1686232803056438
          1.1717414204889582 1.171898688925341 1.1786304059138533 1.1704983203914923 1.1724559315153615 1.177579113315478
          1.179062939010016 1.1850616154130647 1.171270553104079 1.180955376543792 1.1876135386579794 1.1937773621776284
          1.18847505972747 1.196601569550937 1.1915465235354428 1.1974340821952052 1.1996095853258297 1.2043041536328276
          1.199377786434897 1.2034168221788568 1.2005777487254052 1.2095841104693013 1.2024808032500927 1.213222458467539
          1.2153144039463601 1.22446346022783 1.2253143397562936 1.2096277093558252 1.2162625145910477 1.2165171894120244
          1.2221083103074653 1.2263372088119249 1.229018686191527 1.2261439286925933 1.2357541958497933 1.2303425114940862
          1.230114035859244 1.2218068715796429 1.2168509284950533 1.2129407223106703 1.193861944445828 1.2148674098479182
          1.195013043168106 1.2010444816071375 1.1900798577035876 1.1854669388578711 1.17839100645647 1.1877116932702858
          1.178311952208818 1.175114867951778 1.1662577356472308 1.1820212743610152 1.1805142375981692 1.176193051062243
          1.1765352127349222 1.1644615952627104 1.164314479412866 1.1871538191594933 1.1765736825169737 1.1848956869752092
          1.170535151982434 1.158212693442568 1.1698644121863335 1.182679688971679 1.1497810449062347 1.1610834777131729
          1.1645899486261018 1.160754822682472 1.158032498888723 1.1349121719830888 1.1547522294259516 1.1565962294963688
          1.161202919103425 1.1476222581773534 1.1567271560299015 1.1469137191475596 1.1578887632650805 1.1450842693917014
          1.1548785370389796 1.1469415327142614 1.1483190283532803 1.1470849272792427 1.1531574826647117 1.1564035543169442
          1.1574678327902215 1.1400039756191402 1.1548441368496436 1.15465455021627 1.1610793490070073 1.173554510598761
          1.16488425616742 1.1570597383744807 1.1658487550512073 1.1692003686683088 1.1690369423759652 1.1750361285557005
          1.165430597621791 1.1696103721381097 1.1621062742138688 1.171719363112506 1.1667504193408798 1.1682147992097536
          1.1695584711050842 1.1710814019229854 1.1764319993714032 1.1744509068589915 1.1772353912974423 1.1788069417957359
          1.17990407946363 1.1913010478302604 1.1787044321290487 1.1817494031644542 1.194051878038275 1.1893764034629357
          1.189710870566325 1.1905434537993909 1.1957805722154955 1.1942851096170533 1.1936865941078942 1.1973650512060956
          1.1977617631938569 1.197938163450872 1.208514211432642 1.208840424776903 1.2142664580054834 1.2182560685558443
          1.2160690862414085 1.2162429932737422 1.217068455366622 1.214213963550937 1.2215926360148892 1.2238926495573206
          1.227931067009508 1.222471392791892 1.2178565779843995 1.2326768417623466 1.226900139101157 1.2215913429293401
          1.2253529454372847 1.2127951523380773 1.193607496830303 1.1956627888014175 1.188953413658767 1.1897481766105404
          1.1994364183888961 1.1714242453499737 1.191404070657209 1.1807411894168065 1.1714785027221557 1.180062758008328
          1.172995622477704 1.176447093492901 1.1907364612034481 1.1791499408459638 1.1662932531690189 1.18271621345139
          1.1829294666898043 1.15630001235627 1.1703141494829432 1.171681038556597 1.1624522527544807 1.1735521215920144
          1.1733476486573815 1.1711104953363052 1.1601306834693095 1.1612521876002526 1.1589342021040514 1.1673194854190503
          1.1603967732090252 1.164558923904083 1.165301787092805 1.149232082503268 1.150275277687142 1.1721733840179545
          1.1381445724743964 1.1345473999488196 1.1360438681489493 1.1436225217442535 1.1505876876535048 1.1561279438103238
          1.1542135450708007 1.1606159072676159 1.1781862876355795 1.154146607305659 1.143424366711398 1.1538433164768087
          1.1520711718460506 1.1557808056650687 1.1678152357184635 1.1540733570405093 1.1656316195116108 1.1495638434273354
          1.1614186299823563 1.1638580965552332 1.1684316192079411 1.170386486043725 1.1624661278779596 1.1635937753583099
          1.1766102763231565 1.1614697312442273 1.1676632128641622 1.170467966590874 1.1707006037582095 1.1674039538402772
          1.1735744556329755 1.169001411064623 1.1739373562859887 1.1796223829921535 1.1794184292530154 1.1802821513973307
          1.1819033141538142 1.1894449648371515 1.182539153362424 1.1891577986779027 1.1874524907147623 1.1864295155491027
          1.19666003306889 1.186490352783011 1.1995852533849654 1.1966987378704927 1.2004350118872236 1.2071741350700622
          1.2056509565785998 1.2152955642426913 1.2035421324146145 1.2110921388598046 1.211192056429668 1.2230018568905616
          1.2183894104780089 1.2157134337455966 1.2111563869320658 1.2129562960645826 1.2235831636173178 1.2227316515187285
          1.2242186376780837 1.2216247096235144 1.230530607815853 1.2192359691990726 1.2098385930232445 1.2066527542090744
          1.2070210487737418 1.1922998196540657 1.2018225788839252 1.18188262782387 1.1844188740436032 1.1938854045337333
          1.170684779313007 1.167521329728615 1.1652686803966001 1.179170067879072 1.1944061100208063 1.1739088535899889
          1.168647947621341 1.1605720977429814 1.1759861237598683 1.1655574813661242 1.1649355599445628 1.1779047234670383
          1.1706088110948696 1.156848011074313 1.1628369868171387 1.1522795216871802 1.1685384998300217 1.1561424996974163
          1.155893242149428 1.161891696348486 1.1655151216766153 1.167382015736407 1.1616177810454538 1.169885607646397
          1.1472067412313167 1.1533260225933581 1.1507712200623292 1.1658921408370757 1.1396152818217722 1.1488049973585124
          1.1495056345986259 1.1489062650293267 1.1442250808392538 1.1428686104528387 1.1411848100582995 1.1428788139456891
          1.131257604009618 1.1613487990613784 1.133650422731154 1.166430052915043 1.1705370822753918 1.1434578701996223
          1.147628607021464 1.15180521584648 1.1390982358250121 1.1593463489084725 1.1633266801957287 1.151926569211453
          1.1583228653976667 1.163175679534459 1.1599537492619754 1.1572345471646013 1.162304885720825 1.1668705070983987
          1.1650643879077134 1.1732775837574898 1.165843323336255 1.1676545126427194 1.1667463139657288 1.1641972698149068
          1.1684696312442582 1.1662484067037595 1.1703348250029273 1.1737029422562235 1.1754603277304463 1.1768632574123299
          1.1777824733057962 1.178708921502273 1.188127658354696 1.1890246830849707 1.1861657136988997 1.1938600297546755
          1.1943173128254108 1.1970698806231168 1.2022888100700175 1.2028826230826426 1.2075626993136228 1.2030339315061067
          1.1969990958620869 1.2111447619373656 1.2100127621694556 1.2115935718280204 1.2138074647911385 1.213270009118966
          1.2173072921060684 1.2195225290941007 1.2224830553713373 1.224279384603499 1.2203068841605855 1.2246117907427243
          1.2244045955949758 1.2242951892733671 1.2040240630066943 1.1998183257462391 1.193968214894017 1.19772659024766
          1.1914887524999285 1.1832587944491022 1.174783811511702 1.1796528705975042 1.1786025722239488 1.1804486493407298
          1.1771948531628835 1.16109360155705 1.1731827301875803 1.1763181722121636 1.1609360730904055 1.1743556856314417
          1.1725064718725802 1.1828661478414033 1.1626994262807082 1.1616256459744467 1.1750954763281167 1.1756299481987642
          1.1559132723944983 1.1427969169552612 1.1569382116953324 1.1711924564508096 1.1576727315265114 1.1687646663821516
          1.153983897678831 1.1537479777159976 1.1492979448963097 1.1417827806323604 1.155905857723348 1.153399034199347
          1.1468298042685796 1.1553321272070165 1.1613964780763468 1.149386615811362 1.1534764941066613 1.1269773861684131
          1.1308896725266429 1.134984908111457 1.149482612966856 1.1521033171550845 1.131958179710629 1.1361594565775404
          1.1369274740273692 1.1432234894183628 1.1412064470244105 1.1446325939267552 1.1596178438992493 1.1622146085853944