<VTKFile type="PolyData" version="1.0" byte_order="LittleEndian" header_type="UInt64">
  <PolyData>
    <Piece NumberOfPoints="2500" NumberOfVerts="0" NumberOfLines="0" NumberOfStrips="0" NumberOfPolys="2401">
      <PointData>
        <DataArray type="Float32" Name="zvalue" NumberOfComponents="1" format="ascii" RangeMin="0.6725950937219064" RangeMax="4.440899198348158">
          4.390461846172407 4.2786708720372895 4.165472635926376 4.128494039755458 4.00120436542222 3.9670117227668413
          3.9306097931349586 3.7935194152823244 3.7150286755926225 3.7032538898912404 3.6438831695455436 3.539012088598192
          3.520735716338074 3.398374709142472 3.3691314011535636 3.298046368400373 3.25417374943808 3.2053758606786085
          3.215874254346594 3.1386107140520365 3.1158289403116446 3.0614057202307294 3.010023218776248 3.0098703869620405
          3.026815052141786 3.0327516033751336 2.996790368359352 2.986753659190247 2.995273193354543 3.0345495102557005
          3.051580122078406 3.0634341127374785 3.075415745356194 3.1224889952803934 3.2017748903228385 3.2283173723134833
          3.3042666350182994 3.3718655287251784 3.436554691681953 3.5500463878989157 3.6047333904096877 3.6478564028504086
          3.7301594949600716 3.808721821815021 3.911189138876115 3.9394566090446324 4.032805072747434 4.130387234030794
          4.210255197611246 4.304850117748829 4.293324528670012 4.19127821863714 4.14348400688448 4.0700664130806254
          3.8953563667253053 3.857612699679746 3.784929532771845 3.7094000899365147 3.6542333384203394 3.5560658824076037
          3.4853983605347825 3.4298730187615694 3.3287902767368833 3.2973712663370733 3.201521306751745 3.139146190613504
          3.0902240220270643 3.016013736391429 2.980112595604839 3.0453717372041265 2.9549635442993307 2.892835272413744
          2.889236856292488 2.9489229557559615 2.852135924715212 2.83935789007938 2.8518215572716117 2.8501701391431937
          2.8246320218821954 2.8904302799975965 2.854957225367891 2.9780768141582565 2.9490897877385702 2.978849113791969
          3.115775614258947 3.112897162671447 3.1754561313208587 3.233021351463804 3.3226116021637346 3.3587415083591767
          3.446740106848015 3.529388440659087 3.5870662839956347 3.702480811661947 3.7427992324889323 3.8575159825643066
          3.949417482324508 4.043099746776957 4.145535096419216 4.18196425876111 4.1618863921384 4.15305227417145
          4.046555572316193 3.9322724433737433 3.8725638678579286 3.7214832993051976 3.7043405301202954 3.511248861926605
          3.50307705564048 3.4443625942774987 3.3496442057000113 3.2585805792971705 3.2404396868456775 3.164412903913423
          3.0331380206391603 3.042056859191836 2.9442197907498273 2.93038565621923 2.834014928165539 2.8516097577417283
          2.754836435896082 2.755259049878577 2.773729416901126 2.669077398805848 2.744281848199146 2.665651825912781
          2.721233964163354 2.6980748719710927 2.7362363076019505 2.727086372746614 2.6942964524037487 2.7537186843533172
          2.816417129705372 2.852718591947117 2.911534276494687 2.9395268352156054 3.027086491030827 3.0941520796885826
          3.1436092521554353 3.2770971777013775 3.3740198466171907 3.3774025511979233 3.5106140938723867 3.5576015216036416
          3.6225208776148974 3.7236948648520256 3.794714411268484 3.9259890053546878 4.012236720510215 4.093142553783401
          4.182443497418341 4.026079651415475 3.944131394562279 3.8010884100073734 3.7587697219942595 3.6036522033685974
          3.488971030270891 3.5092346400148 3.334080316496263 3.3171259523034182 3.252378149066566 3.1168338223218175
          3.0690081757390977 2.9971966454028003 2.906971399974122 2.844498243503966 2.8045060466889615 2.7350798609028364
          2.720230001548621 2.660353519787416 2.5969252087227703 2.57179421099374 2.565833140277038 2.5402855373514615
          2.529679918917503 2.545841829491347 2.4959420602365068 2.5344734162936606 2.4920889123292467 2.5141795202732724
          2.5834336171824854 2.5975369122479615 2.6469650540028016 2.639808515517959 2.7618295178530863 2.7626549253399686
          2.8641419628166345 2.9027199173136577 2.984459273659034 3.0655481844960666 3.2107792703911304 3.263519569688611
          3.361429561984555 3.437291959771451 3.5459134252578344 3.5988136950937473 3.709587400292918 3.828186962805412
          3.8996794435893194 4.0352056553722 4.003711160646875 3.963347666053507 3.861882803169987 3.742620662389609
          3.619412926893985 3.4957462859040196 3.4169276731933538 3.3042977365324324 3.2570908817971063 3.1791585522924666
          3.117624127021111 2.9709687439421546 2.9134468512428024 2.9092592100383303 2.781044512350865 2.735786343866888
          2.6555861536124823 2.597038279893356 2.485752844513053 2.4876059627411413 2.4521176060636405 2.418742560897725
          2.460530612121282 2.3822008683960045 2.3820278857880584 2.3434554200864977 2.3427866649895037 2.3616520249751534
          2.379872520046874 2.367554769716335 2.401419782145127 2.4412302896706004 2.528868363547592 2.535704363349061
          2.6218526948784624 2.654701826802159 2.6913731037847817 2.7925532787384193 2.8495785343448126 2.948802023892454
          3.047634271270174 3.174110434255489 3.234658916316671 3.292309956630432 3.430346581783235 3.5085795759521723
          3.616652445403916 3.721042568868834 3.8403474960675164 3.966502788228203 3.9455382853567738 3.8772417318359964
          3.734212793453106 3.645609264128225 3.55956854117721 3.4553228135184355 3.289141878434691 3.173612001153053
          3.155078915062183 3.051550810756833 2.9874369300279495 2.936697813490095 2.8282106439453223 2.7400637455951875
          2.5959084149114635 2.5426134203605395 2.453556864620024 2.430625375927096 2.4070564929932736 2.355022722824154
          2.2965450648106973 2.2932492470162393 2.2110175963829732 2.1932144107011142 2.237855015017796 2.192190365411894
          2.1523599561874924 2.154438388462166 2.21703301392574 2.268468490946598 2.2957321746339825 2.3402356606540224
          2.3562193517928502 2.3781205497967557 2.4038073706346847 2.510259428994019 2.626904033608865 2.6851824092596988
          2.7447566276832664 2.818492061262704 2.9280660329454906 3.001267671847401 3.0734136973833173 3.2118923678621867
          3.295896048574657 3.385574432773381 3.5051212120952986 3.650215876381304 3.7118081590132683 3.823324934553007
          3.9082574866421913 3.752111488385756 3.6982283927702886 3.5960008592190205 3.4517539335454366 3.3481872587789145
          3.2285585094517977 3.1263717042421773 3.054160387630229 2.9803020044763975 2.876893740832819 2.7735932472139324
          2.7035367871918514 2.521871774610899 2.5299620414298247 2.4109989744183804 2.3588727606884436 2.31825317835748
          2.2245470072097575 2.2032664226149485 2.1232307901586003 2.152504019734571 2.0866742562086777 2.0586685667440006
          2.0363485380402797 2.040141618446007 2.086417936017799 2.0775005531923 2.0591822095630476 2.102813362263907
          2.1396442250736842 2.1751326093149603 2.2345448731082236 2.214371408967001 2.3313974174621395 2.4200197098053353
          2.4335320137117917 2.55535963431226 2.624728803135361 2.6818305834271756 2.7972973378223407 2.8858901955274634
          2.998651430526069 3.087158303065484 3.2135471537832103 3.2990157239573206 3.396163306056032 3.5024042978576206
          3.596953395185257 3.7073558006831853 3.8271069935498754 3.701943334543954 3.565195276892355 3.459803581690858
          3.3450932295414675 3.2173555658559403 3.0728641667424323 2.9812103390115148 2.9637711897209735 2.8017598524936793
          2.737057133524788 2.6566614744974477 2.5621276099229 2.4586389876754353 2.3555656385760075 2.3035984877223403
          2.24545205666663 2.228551624971185 2.110974243336293 2.0405864175897763 2.007499885017858 1.9712542777637447
          1.9536660433598385 1.9048000068781963 1.8997765868306689 1.8731694489569282 1.9455337992311041 1.9215883332606722
          1.9889827132164257 1.9402738630955685 2.0344677245437395 2.0333833054510597 2.082105875207709 2.1233208124629703
          2.1929072699617334 2.2511276628064367 2.299090558469234 2.4300815593080407 2.467582862148889 2.5628300370006807
          2.6626799255447464 2.809187808303436 2.896672638818881 3.0266143257779565 3.165024522668537 3.1654326509866526
          3.3221484591402395 3.4402803955492485 3.527512337167766 3.6664415433126636 3.727494033616594 3.634800203759267
          3.496410992944471 3.30730475731503 3.188269784018728 3.1354737158676325 3.0623000725287093 2.8140107183026952
          2.725467814032821 2.6647426330059814 2.570301744042319 2.496637591389069 2.3926844638220452 2.354364830824006
          2.1800421150496017 2.197797529046671 2.167429566364289 2.025806873119713 2.0005170602596323 1.920196875801321
          1.878909696856148 1.8584941613934138 1.853763102766543 1.799517416113963 1.7666797661864462 1.8216730077953402
          1.804055711634772 1.8017860108627004 1.7666816404827395 1.8334935004141548 1.8636469875539703 1.8613552562047961
          1.9589807153586525 2.030700802546577 2.074117526369655 2.1358563343447874 2.1885515649223453 2.2839673715205024
          2.3513698620770773 2.4571775343393756 2.560168740619659 2.675956666897876 2.7937494000128034 2.900831997177422
          3.0082121819068903 3.103554115990133 3.238347625795449 3.3882526628014484 3.4942516771970493 3.5830407578075314
          3.658933545591982 3.549627329059797 3.4070399922883503 3.308748503470075 3.1580816520882373 3.0262993325452094
          2.842454176185456 2.8136794699340486 2.686674883537848 2.546184164514536 2.4117924832654585 2.4669419497206997
          2.3127703211773905 2.273325163665193 2.214569297865966 2.0831770244257477 2.008043655802498 1.9505303452977705
          1.8278440943412786 1.828579570359731 1.7613255010219047 1.7472370260553525 1.7046503098311503 1.6808138750248214
          1.663346919670384 1.6857212089939855 1.6488038486364585 1.7044472234234815 1.6901215801621052 1.736177234762638
          1.7726910751090716 1.768318677704303 1.80387243279514 1.8982284363360453 1.9799387216283135 1.9720120829314545
          2.0399012088195843 2.202526922046663 2.257677109086868 2.3404449042853455 2.4568117042122988 2.5888095401533064
          2.7244817607299683 2.8071424050611897 2.9142924700070467 3.0526831362588807 3.1291127906730787 3.240287430537578
          3.384770257832563 3.5215377840249524 3.5520960251089786 3.3905246647704477 3.2803660746205545 3.1720402970796777
          3.0951781074906886 2.851599844028267 2.787954108719411 2.6286848696924934 2.56071832700085 2.4976817081120353
          2.3867296775473137 2.28842399794937 2.1792856640583964 2.1152186091809932 2.0470193964162227 2.009313276908043
          1.9443076943167272 1.8584217121411373 1.7735016252551108 1.7006295638605335 1.696415089283197 1.6666170679455017
          1.6505507307498828 1.574082648180177 1.5534217999043942 1.5793369568567444 1.5592509406443529 1.570448977075253
          1.5308390825659306 1.5910474796984468 1.594771201101623 1.7034122904931281 1.7367912813710435 1.7645603799891139
          1.8491284657381866 1.8620842809626568 1.9356472327040468 2.074310429304436 2.186635868918367 2.274838101438556
          2.3823280760718477 2.5217433269957388 2.6101992666852794 2.706835697156967 2.816086021352837 2.9234623018173904
          3.0625917980755997 3.212908716213472 3.3887376238029194 3.4173366829764356 3.5151204608053535 3.295116108907408
          3.194949807559242 3.0850459083371717 2.9493373612645257 2.7935017038383707 2.675022727463562 2.6256741299161863
          2.4884068277926294 2.4216242059100708 2.261131089563608 2.1846351611347306 2.1042122362139324 2.1075100275261773
          1.9963474825096752 1.9610436761925722 1.8101852916417134 1.7223716815750878 1.7523442041205775 1.6019375496060133
          1.5413165441977021 1.5359571643997703 1.518118559905955 1.4806140065200235 1.4878159976204388 1.4573344609114165
          1.459280997845023 1.4638108471452667 1.494248333835867 1.5241190394793656 1.5467931150543084 1.574660359463423
          1.5626728560398917 1.6737290615833196 1.7584263103057873 1.8252847581918497 1.8907418774362514 1.9654701824033713
          2.0063629152132916 2.1318413912109437 2.2436869763779477 2.323987108129441 2.5054054631514253 2.647891391147413
          2.723978294922218 2.8662240185283263 3.007586788678064 3.161287363593512 3.256009615184496 3.368160491280626
          3.381764395436659 3.2562752919714284 3.1449340845777862 2.9910394825870164 2.8731320735920813 2.7635032306398744
          2.6992333578327976 2.5140081655903574 2.3669347181132907 2.3326513711765147 2.1857830011018913 2.136457193530087
          2.055995071367471 2.006999427665385 1.9223599520754382 1.854872490868921 1.7349710153841569 1.6734071097648964
          1.5659549174371756 1.5557904597559151 1.5196129559337619 1.4466636685614287 1.3974677415882366 1.40579755179613
          1.343560182114016 1.3818962460385775 1.3333810310626117 1.3998737897683697 1.3867790320657662 1.3662323972251347
          1.4546548324429154 1.434223838591978 1.51322930842326 1.5840637822820662 1.6741528656365479 1.76705846565927
          1.8116292535104748 1.8451852417327084 1.9468041391607729 2.115473834128236 2.151323250409664 2.3425552782946113
          2.52026924985394 2.6111043446574373 2.663455821684646 2.7994781976042766 2.935770593816706 3.0439881738344092
          3.145662152979197 3.3502312143239834 3.306284791011505 3.2052183639100313 3.048755436536429 2.8568621881855205
          2.7781877224371847 2.622484076617343 2.5450573215488688 2.4421990888071266 2.2946650275040072 2.2856578788568513
          2.1602920446067704 2.0964614610017245 2.011283910282903 1.9351530353208097 1.7818345015779928 1.7308698393550324
          1.6538061810647797 1.5351259564174393 1.522067233926093 1.3944071072305564 1.4124448867652866 1.3230178924309506
          1.3108676730673874 1.3322101378112958 1.258559252521517 1.2694788002321369 1.2589334696556416 1.3064957677499704
          1.2912591468231038 1.2800605542315187 1.3651969236649195 1.4154138686138829 1.4367266522925262 1.4767278355310742
          1.5433763407676389 1.6530596978686225 1.6706929453486161 1.7574924208554725 1.9553260744889174 1.9823068017778376
          2.057234903659552 2.2003467539642907 2.3291769784659544 2.499526930607581 2.618733068701715 2.712326197150417
          2.871524034311096 2.9662143124393436 3.1134166562730443 3.263282339461811 3.2253507355914928 3.092069102770314
          2.921914155839922 2.8655387010728632 2.7353921037286817 2.515755994251548 2.44605538411749 2.4012530304548725
          2.2625013770983515 2.211106480131538 2.1016401133857254 2.030516920360389 1.896830290580973 1.8274193285970302
          1.7462904194088 1.6365042804412835 1.5638673436979338 1.5018098725766147 1.4755484954342277 1.3896657159123447
          1.257561863974445 1.278524440757222 1.2312593515194559 1.1183483092565174 1.1838108462924384 1.1889155696779794
          1.155401095569086 1.2109777504569905 1.203856287146838 1.2769336022675357 1.282887299712859 1.3004243185402276
          1.4137237016414264 1.4131185755902735 1.454346783949605 1.5388567674724236 1.5879813497047888 1.7074170868661338
          1.867631083050444 1.9741498868839764 2.012594099149897 2.201725693085137 2.3564679761225538 2.4347091205750573
          2.501904854125909 2.6909811986250287 2.7742440387068914 2.8989100382745376 3.0951006576425133 3.1923128525277944
          3.216962397226982 3.069171240147915 2.9192382410433972 2.8267292946875755 2.6809321014185867 2.5959973149798516
          2.4691746090955835 2.340574460025672 2.217591294496778 2.172578484691661 2.0885358573848616 1.9340477972619388
          1.8563596718200481 1.775920742236998 1.6659905882711334 1.544207644119349 1.4591136478543376 1.4166591747110064
          1.35507938723141 1.2271650973659094 1.1986761062610403 1.2332394316868527 1.1537425475626797 1.096585139767701
          1.1460029636060571 1.080521703596881 1.0867504607613272 1.1184149673879031 1.1416912101196792 1.1697579470483643
          1.1966316159317434 1.1897870265249573 1.270850291274583 1.3129425757924942 1.403746393962263 1.4653790513359553
          1.540513893862377 1.6755659014380802 1.8139613191117292 1.8015055560074718 1.9780989918885092 2.092707707479197
          2.245372788371319 2.3535761027570095 2.422851978121864 2.5968931997641813 2.6668637703668936 2.8701076307689948
          3.0029463228996485 3.1511113866496783 3.0986018745549186 2.945627083339199 2.8166836827006203 2.6944254905327676
          2.637118750418365 2.52373680901548 2.3933541227079145 2.261889700659006 2.2217856827725364 2.0571627749355827
          1.94864224623591 1.8490106430196358 1.7627746706585576 1.7039412791619508 1.6221610607360164 1.562721672227613
          1.432067708114548 1.298046272976202 1.2121247352397184 1.195368168556693 1.113023066653159 1.1218302791704193
          1.0701017287933638 1.0052512500696298 1.0406825373489135 1.0386339041439225 0.98324521388131 1.0485882483903135
          1.0621399385269474 1.0814822913938382 1.128455304103715 1.1613002817627052 1.2182847380054898 1.2463909943408569
          1.3033743665225301 1.361389042231465 1.4892254564141831 1.6000566394167732 1.7219505753216031 1.7748986770040074
          1.9012848076491113 2.0370097549864323 2.135178167221534 2.2249846556694974 2.3531723710560195 2.5213349730522228
          2.6208177275622764 2.8550348394406373 2.897199780824945 3.0548937013286905 3.076183624927033 2.842176614344461
          2.8019629135929724 2.6087020882942853 2.4865767752207137 2.425710650238258 2.2830011871989377 2.2485173890584855
          2.132074907571302 2.0384633732792903 1.9276761731748109 1.8343561027442319 1.7480403192424592 1.615498914136036
          1.5360976673061897 1.4331321636885481 1.3465109992462436 1.2581929237878777 1.1482471800696912 1.1288952307175255
          1.0541785579653264 1.001456540342211 1.0131556567620186 0.9661371816896452 0.9757401315630632 0.9487164986375264
          0.9562750098852392 0.979740956731218 0.9645414613728543 1.0246103374700832 1.0647038968222133 1.0709254395692733
          1.1749678238259433 1.2044346145986782 1.3023971155352396 1.340961843963856 1.3801814922883235 1.4842112171473738
          1.5524061587170945 1.7216302283865026 1.7673605972358657 1.9440613919884477 2.0776053869453674 2.2390111841864724
          2.3858642961008094 2.495621042898645 2.6160690603546155 2.7125587916978646 2.896380182827 3.025326259277583
          2.995834387785956 2.856023644443477 2.7326900950475954 2.624207909745267 2.4797896823631462 2.3405208860337305
          2.2528179779551922 2.123958238552218 2.0663193434281903 1.930235259938675 1.9032283763041677 1.7893553250266698
          1.7124360904458784 1.5281125695498596 1.453838321452513 1.3486182351361655 1.2078272514620692 1.200874031109159
          1.1060055027659161 1.0589171289018176 1.005896909100641 0.9664967263428068 0.9955038449000587 0.9370753670830531
          0.911185521201297 0.892212899759493 0.9277425668201448 0.9336063401960497 0.9368138435985824 0.9596126263827022
          0.9534852658251892 1.0410029993989887 1.0618900773548121 1.1368429922908572 1.2507207640812104 1.3056097324292608
          1.4160039818307049 1.4762616813416285 1.5568535841348223 1.6518306819185138 1.7399523804990753 1.906087824894906
          2.1042621826662873 2.171313870090633 2.2890800307522396 2.4218170533596335 2.603902948291039 2.7849429756651856
          2.887152465965452 2.9909246404895757 2.922431240505479 2.792467095989606 2.645877321737921 2.5508816388305715
          2.4316832481290764 2.3682382492429586 2.215195774554036 2.071241262823825 2.0141460062248058 1.8828951975598809
          1.8361862714808899 1.7138894333476513 1.6336469371048905 1.5729892295069456 1.3790798043371824 1.3111948401114246
          1.197886632634261 1.1459425915145338 1.0550869985053184 1.0319840051343883 0.9481778237891606 0.962768325008191
          0.9253002407632043 0.8687995169481646 0.8705920138104469 0.8124943321791359 0.8822164910437121 0.8520817361083584
          0.844275435958169 0.9225947201433006 1.0190222731453404 0.9865148752673969 0.9655240202587515 1.0838542452140905
          1.1836380457555362 1.212402587700063 1.3457555441795472 1.4007201324659129 1.5100053892128225 1.5994371664154559
          1.7632128312118123 1.8822392004540662 2.046297025609565 2.100155697460421 2.2213545447386163 2.3474560327814777
          2.545278093255035 2.6798122115493905 2.8196490721564023 3.0497498091658057 2.951082672918487 2.758615626108965
          2.688768818168346 2.5035450905249386 2.3203187635363816 2.249647678520063 2.117598552201717 2.1075037104227827
          2.024328806279511 1.8990898152126674 1.7922437549172547 1.705300654502498 1.5338991892496052 1.4342999680719892
          1.3577215120735855 1.2808051242588223 1.1623664478757363 1.1150431071713118 0.9706597314717653 0.953793769545193
          0.9042326313266341 0.8818905703480542 0.8004527753368249 0.8169807824105939 0.7999515426766516 0.81482166854884
          0.7585802782244104 0.8372944495760707 0.7996734924245046 0.9136709358632908 0.9037894864190805 0.9744397307563358
          1.0117922697943509 1.0655436875906918 1.1108528090684946 1.22528921095605 1.2276078657707759 1.3617010403187622
          1.4549620626336102 1.5679440074906115 1.7073832346278477 1.8683932008134858 1.9735231895354306 2.1229911761022917
          2.2432763116179384 2.4195825944369393 2.4854299290547943 2.6741060357192947 2.808558078477868 2.9444255573651996
          2.9023007048700795 2.7138817060373666 2.577715756938732 2.5110119737806 2.417132920534932 2.252897409990821
          2.186821281170189 2.0302075051479407 1.896538804260979 1.844977926670309 1.762780888204756 1.6329247913783462
          1.5313733894557882 1.4048384265575065 1.3195393286842743 1.187989281769084 1.1001032715940358 1.0125714024307824
          0.9896694918039453 0.9040514869917666 0.8846147218199369 0.7954640020851783 0.7772051554461628 0.780949252148544
          0.7854422810861649 0.7977826838947176 0.7307005064316523 0.8028886841960232 0.7307744449441664 0.8211216706521738
          0.894018513304146 0.8620244250494112 0.9857782446981274 1.0179686863398225 1.094139893381899 1.1530163938516214
          1.2003112284075428 1.3034775850605367 1.4257920118292389 1.5044469514548078 1.7084807516167715 1.805313615207983
          1.9533009052420367 2.061063899443527 2.2138465533758023 2.351575381587119 2.4780428071264535 2.6669860300788235
          2.8448089324725023 2.9212793287148062 2.88350747245594 2.7623905234244233 2.587929358571485 2.477211051172778
          2.2912680922837643 2.2231202149166873 2.128505361577666 1.9851118763115123 1.8876342165503694 1.863433256514847
          1.711277578240072 1.565899186454073 1.4333945609601575 1.3318648206997343 1.239800207791719 1.1900752885419503
          1.0578632558497127 0.9638014640568943 1.0185002895189708 0.8808013086799444 0.9326535866081775 0.8044794006623308
          0.7839937106794584 0.7514334829673707 0.6818639220990884 0.7485492925933428 0.7111939026098066 0.8178070811144957
          0.7836174849056329 0.8085387650895539 0.9028963729107287 0.850783154113263 0.907130144271273 1.0178676734727348
          1.0568588176944087 1.1391287479307957 1.2106856832111679 1.3270796382794663 1.455619618690423 1.5005579487714003
          1.6098504535937725 1.7541532821294268 1.8942068627681201 2.1046328945874535 2.212339742984337 2.2590901850756757
          2.4248484082064685 2.6761130701642664 2.8111472584798705 2.9637672511247906 2.9195415849579054 2.7246546435128365
          2.520966890255444 2.4016764649179057 2.305453546988634 2.238696496921266 2.0569225826042827 1.9469008459299042
          1.8830559197901415 1.7669929693811988 1.6819807066635257 1.5248069875221306 1.4258702182051792 1.3224237547458304
          1.2301825080849462 1.1426457423277394 1.0062024324015053 0.9623636318053883 0.9203256257743945 0.8886192658778848
          0.7322469095984268 0.7050778545481614 0.7439909137611959 0.7613067825156006 0.7663506047085731 0.7587430355608026
          0.7090039766184549 0.6949684575625305 0.7608846867688144 0.8444885384763045 0.8407274991303882 0.8361198357988828
          0.9359951071896808 1.009697509449381 1.0017654368445188 1.1043037941159008 1.219783802733384 1.2727344526793756
          1.3757807513493974 1.4877330643967797 1.5904608399646583 1.7598561365623662 1.857524824957689 2.0921753996457615
          2.171882772335905 2.318104359794909 2.5232646813726074 2.5221537347049843 2.910086506164346 2.8656478392642355
          2.942359847110219 2.6740571648552747 2.555968201206696 2.48629968071259 2.2909446336205477 2.223764164082451
          2.0443810195400154 2.028540400323721 1.9214187827066744 1.7661291006642659 1.641955150295032 1.5216477253647402
          1.4393555499162987 1.31710020577867 1.2242798261564258 1.1043634143049708 1.0165761791402683 1.0066468415817265
          0.9137852401739887 0.8806476430614228 0.8070538574657271 0.712999768156314 0.8549951766143136 0.7488822614701217
          0.73782224280739 0.7473861751915829 0.713274190332264 0.7453339447864196 0.7726100035237635 0.8079915420357396
          0.841362157568686 0.8974589740740104 0.9151027878547449 1.0220334176521104 1.0752534373351745 1.149052823866414
          1.1663143536338696 1.2776937254111103 1.4070121774880944 1.5258712528247969 1.650817173527492 1.7549911533136822
          1.877345509706931 2.0071275529669403 2.229877061627143 2.403615500830015 2.4689652868442153 2.7180311057200406
          2.7237746908936695 2.9802955154793103 2.9386018322734615 2.7587366565973213 2.5444664866627735 2.4634506765451025
          2.2667432612386627 2.199266014912683 2.0890723488567846 2.008013023728273 1.8762045510738448 1.734856357874173
          1.662422989366707 1.5031254629655415 1.4002629453938564 1.313109457000027 1.197629910452154 1.1383105593958482
          1.0348671979341921 0.9659042046673352 0.9229327483000527 0.8458441266376433 0.791335948546715 0.7600006015738707
          0.7588887717507719 0.722839032349836 0.7060148908229507 0.7583584713813918 0.8018663277731285 0.6795457540563027
          0.7959621911291231 0.8030099702234826 0.862807955913695 0.8850217729269257 0.9357739394622734 0.9994939694982742
          1.0861179493481867 1.1449055024190038 1.2086300637753724 1.3157772468194333 1.3767159080424958 1.4448003630318365
          1.5641003820569923 1.7416808111317046 1.8795044407165593 2.030927354230166 2.182451456768787 2.3637197757832054
          2.5542924341868676 2.64466031880027 2.76983215143328 2.9424678810611096 2.9431880605679 2.7460775900014953
          2.6336618700464856 2.410490950503481 2.2896503796549084 2.212882341571715 2.109811750045568 1.9746980946745376
          1.877959849244957 1.739086687560935 1.6057333489672292 1.5368664915250594 1.4010804460199018 1.3145150406229191
          1.2071567028107077 1.106059460337245 1.1046159606144395 0.9608761193376922 0.8628302903751945 0.863952256706579
          0.8725502925413468 0.7662630178096823 0.7383807763062146 0.6725950937219064 0.6887297820127701 0.8442245490300039
          0.8138803063630048 0.7495443458004549 0.7725860557969266 0.8054788474681934 0.8652426924433285 0.9476397828555216
          0.9662315820461087 0.9703196157059089 1.0772361121142033 1.1220387447785882 1.2216943136863652 1.3113087868399844
          1.3658170527806996 1.5310911876368605 1.6493629319165217 1.7846958041028476 1.9380452898042968 2.090594516092789
          2.145555408865764 2.315783259201143 2.527626492827656 2.636954318368546 2.8187820797929644 2.896578339793041
          2.931677928803905 2.7603526185822265 2.652615224368746 2.4883775251478957 2.3197798006649983 2.2613326603132973
          2.108346922607384 1.98883357824904 1.9151152817735562 1.729054660776539 1.6400428849941795 1.5793442788183703
          1.4159018539626371 1.305332535856541 1.2235582227330337 1.0763043479781937 1.0643570174749446 0.9306108774908999
          0.9214185722835637 0.8877860415249795 0.8723565903026912 0.8098492675506186 0.8213446143807344 0.8311511800844544
          0.6853688688707972 0.76693612075991 0.7756122996660255 0.8358366254181774 0.866139577948487 0.8689087173370266
          0.8491514194997833 0.885742169962536 0.9758881701112057 1.0395653799401257 1.0773008590214277 1.1450374449723029
          1.2723799272846001 1.287186618407425 1.428336222871745 1.5312282508329649 1.6948879529736962 1.7927335464973653
          1.9230801016090266 2.108630797449562 2.205906342350468 2.217704304351799 2.46029707315301 2.723978357495845
          2.834453058744604 2.8461710915323684 3.0190775582453724 2.8574041077461763 2.657303938579714 2.525746809731642
          2.335075041806979 2.2790417545038 2.1238543334562627 2.032259906836951 1.8182831570694447 1.7440165096440772
          1.6348496345702537 1.5727362908545561 1.4182543372558494 1.3612284992661345 1.2061751936265845 1.09933291931452
          1.1007022579807229 0.9731332219276353 0.8946852956491053 0.8728069101489703 0.8307655380086324 0.883644601233967
          0.7257405348660032 0.7506097424336239 0.7732970314708665 0.7314293772049867 0.7071583425950216 0.8514284075041731
          0.7946596301213549 0.8800205315164044 0.8723524049636826 0.9836018259930165 1.0069466920141878 1.0312145014987268
          1.1227315321289548 1.1884154110334157 1.2919121102840074 1.318729159302903 1.470171734426987 1.5317970324870995
          1.6738071748396128 1.8624030900153228 1.958239779888925 2.0993733262375227 2.3208263000760083 2.340314780740616
          2.5322480722878264 2.674142111803293 2.8210338465591156 3.01076579646059 3.044002622801512 2.8670468971892693
          2.7133781226850946 2.5177107930050435 2.4030044355421203 2.2712414187291894 2.0819026382362895 2.018183658090795