<VTKFile type="PolyData" version="1.0" byte_order="LittleEndian" header_type="UInt64">
  <PolyData>
    <Piece NumberOfPoints="10000" NumberOfVerts="0" NumberOfLines="0" NumberOfStrips="0" NumberOfPolys="9801">
      <PointData>
        <DataArray type="Float32" Name="zvalue" NumberOfComponents="1" format="ascii" RangeMin="2.6870450258255003" RangeMax="3.4762251377105713">
          3.3677170515060424 3.2768699407577513 3.2207924127578735 3.274613857269287 3.2663544416427612 3.2886324405670164
          3.2751850843429566 3.2263732671737673 3.284457492828369 3.2492783069610596 3.317875862121582 3.2163180112838745
          3.2552960872650147 3.2793526887893676 3.215708518028259 3.2359192848205565 3.1549873828887938 3.178964900970459
          3.232366418838501 3.1988076686859133 3.2391093254089354 3.2212497711181642 3.2335516452789306 3.2028223514556884
          3.2551624298095705 3.200676107406616 3.2328386306762695 3.2478389978408813 3.289405083656311 3.2060096740722654
          3.2655144929885864 3.2270097732543945 3.2601705312728884 3.2400036096572875 3.2671653032302856 3.2448508024215696
          3.2248669385910036 3.26246657371521 3.2416436433792115 3.248510980606079 3.220740032196045 3.263425040245056
          3.269666242599487 3.273960018157959 3.2494742631912232 3.261824202537537 3.2516993045806886 3.2474145889282227
          3.2633284091949464 3.208367133140564 3.225090265274048 3.2177252769470215 3.2393707752227785 3.207969617843628
          3.2136388301849363 3.225969338417053 3.237061548233032 3.2207469940185547 3.2245141506195067 3.204196572303772
          3.1978063344955445 3.2125044584274294 3.245666527748108 3.2027315855026246 3.272762680053711 3.2639544010162354
          3.2240532875061034 3.2368555545806883 3.2266420125961304 3.250271368026733 3.234288549423218 3.2745352268218992
          3.258818197250366 3.2787966251373293 3.2736080169677733 3.2939406394958497 3.274774193763733 3.2918331623077393
          3.2983004808425904 3.2883043766021727 3.320071816444397 3.3191219329833985 3.3142531871795655 3.316638374328613
          3.3220263957977294 3.3316267490386964 3.338580822944641 3.3049587488174437 3.334593176841736 3.3137704133987427
          3.325267958641052 3.3387160778045653 3.3395777463912966 3.32430477142334 3.329221487045288 3.343834900856018
          3.320421838760376 3.3288737773895263 3.3198091983795166 3.328299951553345 3.3764504909515383 3.3358967781066893
          3.2911871671676636 3.291273021697998 3.250488114356995 3.2623592615127563 3.273413395881653 3.2581828832626343
          3.1734742403030394 3.214116930961609 3.176204252243042 3.202433705329895 3.2057579517364503 3.222833251953125
          3.180510330200195 3.2030120134353637 3.230523777008057 3.2075942754745483 3.223446178436279 3.2198026180267334
          3.2015887022018434 3.2215381383895876 3.2021836280822753 3.245005750656128 3.1798128128051757 3.2184074401855467
          3.197438430786133 3.2076438665390015 3.221929931640625 3.2501426458358766 3.2023159980773928 3.1921852827072144
          3.229217863082886 3.2149633884429933 3.178790044784546 3.217320680618286 3.242275929450989 3.228774571418762
          3.243720531463623 3.1948314905166626 3.2110692262649536 3.271019387245178 3.196405029296875 3.246876859664917
          3.245791220664978 3.262099504470825 3.217310667037964 3.2566870927810667 3.2375635385513304 3.222483515739441
          3.219905686378479 3.217908430099487 3.2305345058441164 3.192439603805542 3.2157790899276733 3.21385657787323
          3.1959112882614136 3.207422113418579 3.212714695930481 3.1809326171875 3.187607836723328 3.2026870489120483
          3.2041517972946165 3.2005660057067873 3.2384040355682373 3.2202075719833374 3.2282561302185058 3.2213437795639037
          3.2325896501541136 3.2430620193481445 3.2458707809448244 3.242822027206421 3.2662105560302734 3.257295250892639
          3.3267576932907104 3.267412209510803 3.308417224884033 3.2829482555389404 3.3033946990966796 3.2921359539031982
          3.2914843559265137 3.3245144844055177 3.3163512468338014 3.3088014841079714 3.2949729204177856 3.320782256126404
          3.32117235660553 3.3150330781936646 3.3346142053604124 3.306935119628906 3.3283892393112184 3.3238983869552614
          3.355688786506653 3.3273520946502684 3.3203306436538695 3.3497118234634398 3.3503945112228393 3.3647555351257323
          3.3066733360290526 3.337865447998047 3.3081618547439575 3.2763626337051392 3.3319849491119387 3.235118532180786
          3.321165990829468 3.19712073802948 3.2935571670532227 3.2073039770126344 3.2140363216400147 3.214542031288147
          3.233423447608948 3.124928188323975 3.1710395336151125 3.2111305952072144 3.179310369491577 3.2341851949691773
          3.162985014915466 3.2324571132659914 3.1835850954055784 3.196007800102234 3.2481085538864134 3.2184581995010375
          3.235085940361023 3.2058568000793457 3.2224640607833863 3.218149948120117 3.2212907552719114 3.262338376045227
          3.1947741985321043 3.1616387367248535 3.253434252738953 3.2373672485351563 3.2400521755218508 3.220548629760742
          3.257320737838745 3.228744554519653 3.221288537979126 3.1668975591659545 3.2116883516311647 3.2052148818969726
          3.1812724351882933 3.2232290267944337 3.229718065261841 3.232332396507263 3.2219950675964357 3.237706160545349
          3.2024940967559816 3.158456230163574 3.2179945945739745 3.1964475870132447 3.2093550682067873 3.207455539703369
          3.2028141736984255 3.1892382383346556 3.1906070947647094 3.192232537269592 3.188433814048767 3.19440233707428
          3.190964961051941 3.185612416267395 3.191041350364685 3.173536229133606 3.198816180229187 3.2176170110702516
          3.2099191904067994 3.2091410875320436 3.1881488800048827 3.20589165687561 3.2222556114196776 3.2271696805953978
          3.2395490169525147 3.2640335321426392 3.22821307182312 3.242958974838257 3.2482195615768434 3.270030403137207
          3.2520624876022337 3.3045963048934937 3.28468279838562 3.30218391418457 3.2968487977981566 3.2943514585494995
          3.314855933189392 3.306696891784668 3.31273295879364 3.3161077976226805 3.3158371925354 3.3242049694061278
          3.3235246658325197 3.3216819047927855 3.3177455186843874 3.329985189437866 3.3337851047515867 3.324160647392273
          3.3373205184936525 3.3309701442718507 3.3558501243591308 3.335714840888977 3.337775778770447 3.340449357032776
          3.2662155389785767 3.3111172676086427 3.267898678779602 3.278485369682312 3.2739113569259644 3.280515670776367
          3.2520024061203 3.1924299955368043 3.198483967781067 3.2376524448394775 3.2014178037643433 3.25814893245697
          3.2066028118133545 3.1987744569778442 3.1749361038208006 3.176615309715271 3.2231855154037476 3.2008374452590944
          3.1784617424011232 3.2174273490905763 3.184838795661926 3.2096099615097047 3.170000600814819 3.2319283962249754
          3.1831547021865845 3.2033265829086304 3.2010151147842407 3.2177436113357545 3.191293239593506 3.2293010473251345
          3.224703550338745 3.162459373474121 3.169561338424683 3.148117446899414 3.1638071537017822 3.2047571897506715
          3.129988408088684 3.1758750438690186 3.176226782798767 3.2167240619659423 3.1700857639312745 3.2287354707717895
          3.204440975189209 3.179531145095825 3.211023759841919 3.195159411430359 3.199906063079834 3.2088982820510865
          3.1979202032089233 3.2015039682388307 3.225339484214783 3.214239168167114 3.163453483581543 3.174799680709839
          3.187319827079773 3.2083226442337036 3.200282263755798 3.201088070869446 3.193099021911621 3.1908263206481933
          3.17829372882843 3.191839861869812 3.1767653942108156 3.184281277656555 3.188542127609253 3.206133270263672
          3.1994105100631716 3.2021161794662474 3.2136308431625364 3.1946961879730225 3.219565439224243 3.2427480459213256
          3.2517218589782715 3.2687834024429323 3.2284106016159058 3.2578710079193116 3.2683725357055664 3.265450954437256
          3.2572174072265625 3.2785112142562864 3.294960308074951 3.2720773696899412 3.287381649017334 3.3101516008377074
          3.3080940008163453 3.3224748849868773 3.313566732406616 3.2980226993560793 3.340887665748596 3.330032992362976
          3.3332882165908813 3.3396938323974608 3.3296218872070313 3.3365845918655395 3.307168698310852 3.3278412342071535
          3.3340537786483764 3.336999249458313 3.3385380268096925 3.3436523199081423 3.2417370080947876 3.290313386917114
          3.2557041168212892 3.283496284484863 3.222790312767029 3.2901574611663817 3.2265807390213013 3.2309858322143556
          3.201909136772156 3.1927626371383666 3.1795650720596313 3.175821900367737 3.1836244821548463 3.1831262826919557
          3.1862078428268434 3.2106615781784056 3.1992774486541746 3.238024592399597 3.189313793182373 3.151663303375244
          3.224321722984314 3.164265775680542 3.184021496772766 3.153289031982422 3.1467153310775755 3.1690773725509644
          3.1496142148971558 3.1934889793395995 3.1165589332580566 3.2047061204910277 3.191846990585327 3.2062291622161867
          3.1539400577545167 3.176726293563843 3.1463609457015993 3.204066610336304 3.1247560739517213 3.178091597557068
          3.185353088378906 3.130372929573059 3.1752464294433596 3.158717155456543 3.1842589139938355 3.1803702831268312
          3.138562226295471 3.2023950099945067 3.1785429954528808 3.1923927545547484 3.1650664806365967 3.1662011623382567
          3.1790762901306153 3.1949687004089355 3.1659806966781616 3.1798564195632935 3.183610367774963 3.1761766195297243
          3.180341124534607 3.168931794166565 3.169571805000305 3.1758637189865113 3.1703508377075194 3.18021240234375
          3.1806461572647096 3.2065656900405886 3.1623847007751467 3.1965905666351317 3.200346279144287 3.212133049964905
          3.1987490892410277 3.197402811050415 3.204937243461609 3.207796311378479 3.2242478847503664 3.23822078704834
          3.2706241369247437 3.236555886268616 3.2642277002334597 3.2635409832000732 3.2540555953979493 3.2911808490753174
          3.300342655181885 3.2749261140823362 3.2919811487197874 3.2770632028579714 3.3234665393829346 3.306924748420715
          3.3059791326522827 3.2997811079025268 3.300352931022644 3.302440047264099 3.3446616649627687 3.3361371755599976
          3.3205877780914306 3.340103101730347 3.332539701461792 3.3502878665924074 3.3162346363067625 3.3351516008377073
          3.353834700584412 3.343691086769104 3.3082508563995363 3.2233317136764525 3.260693073272705 3.1907559871673583
          3.2302905321121216 3.2612833738327027 3.193984055519104 3.1593513250350953 3.1331369400024416 3.1835433721542357
          3.144153690338135 3.179197359085083 3.158859300613403 3.2068315982818603 3.22355580329895 3.169439172744751
          3.1964061498641967 3.1630467891693117 3.1702476978302 3.1412105560302734 3.2052595138549806 3.2162667512893677
          3.189231204986572 3.2577689409255983 3.171797823905945 3.1753907442092895 3.227099084854126 3.2037634372711183
          3.1286442995071413 3.16697895526886 3.1887624502182006 3.13362774848938 3.2287604570388795 3.182688021659851
          3.136996269226074 3.15958571434021 3.2013320922851562 3.1763295412063597 3.1875321865081787 3.164347767829895
          3.149643588066101 3.2006845712661742 3.156023144721985 3.172472333908081 3.1531221866607666 3.1497237920761108
          3.1334081649780274 3.1835023880004885 3.1538995504379272 3.143736720085144 3.1693684577941896 3.14972984790802
          3.1591880083084107 3.1507303953170775 3.1589753150939943 3.139760732650757 3.1709075927734376 3.163000988960266
          3.1306488275527955 3.1610665321350098 3.15413875579834 3.1452142715454103 3.1772493600845335 3.1761822938919066
          3.1548282623291017 3.1896138906478884 3.1840740442276 3.199091672897339 3.1963748931884766 3.2149855852127076
          3.195498156547546 3.2303570747375487 3.224536347389221 3.2434983015060426 3.2426846981048585 3.2280701398849487
          3.2421220779418944 3.259809160232544 3.2602158069610594 3.273804521560669 3.271505856513977 3.301831102371216
          3.2715663433074953 3.289687180519104 3.3167490720748902 3.314227247238159 3.3194727659225465 3.29624080657959
          3.3052703142166138 3.3173819065093992 3.331523561477661 3.305692672729492 3.3364502429962157 3.332904005050659
          3.347174596786499 3.3205487966537475 3.35261926651001 3.3660836696624754 3.314414548873901 3.3373255252838137
          3.273635149002075 3.216373419761658 3.2640864849090576 3.2570428609848023 3.282201051712036 3.167128157615662
          3.18684778213501 3.219400143623352 3.2839036703109743 3.1765550851821898 3.176830697059631 3.1603999376296996
          3.224165201187134 3.170843267440796 3.149435567855835 3.1909744262695314 3.115735077857971 3.1559848546981812
          3.193236780166626 3.1749486446380617 3.2112108707427978 3.173988771438599 3.1902745962142944 3.2207245588302613
          3.1739975214004517 3.1687004566192627 3.1566059589385986 3.1946990966796873 3.1746405124664308 3.231843042373657
          3.1719756841659548 3.183080792427063 3.0910393714904787 3.1667606592178346 3.1668058395385743 3.173007082939148
          3.178488755226135 3.1415287733078 3.1247223615646362 3.1467001676559447 3.1194726705551146 3.1322434425354
          3.1454710721969605 3.1501619815826416 3.1799472332000733 3.154280495643616 3.177867603302002 3.1325897455215452
          3.126991033554077 3.167516803741455 3.1633158683776856 3.149212121963501 3.183110237121582 3.138204002380371
          3.151343083381653 3.138726258277893 3.157413053512573 3.141421747207642 3.1393590927124024 3.160442066192627
          3.1638800859451295 3.1490180015563967 3.1597882509231567 3.1603250026702883 3.170543599128723 3.200461483001709
          3.2065874576568603 3.1789330005645753 3.1940987348556518 3.1998174667358397 3.2006730794906617 3.197492170333862
          3.2052260398864747 3.228456735610962 3.221212315559387 3.216970181465149 3.2325868368148805 3.237303853034973
          3.220207762718201 3.2425798654556273 3.2831643342971804 3.260731554031372 3.2600549459457397 3.2734061241149903
          3.2765076398849486 3.297009992599487 3.288363528251648 3.2834851264953615 3.3214417457580567 3.318889594078064
          3.2930134534835815 3.3322426795959474 3.328643560409546 3.315047025680542 3.3230613470077515 3.3232197523117066
          3.3359333515167235 3.351746129989624 3.3361032009124756 3.3469629764556883 3.2795871257781983 3.252116894721985
          3.2329665660858153 3.2192688941955567 3.1795127630233764 3.2288675785064695 3.2481337070465086 3.1618863344192505
          3.201340985298157 3.1940831184387206 3.1640706777572634 3.1727665662765503 3.175580096244812 3.1461997509002684
          3.134580707550049 3.0937910318374633 3.187615704536438 3.19960298538208 3.208053970336914 3.158596920967102
          3.143588638305664 3.2022780656814573 3.150990533828735 3.1427395343780518 3.133340573310852 3.171430802345276
          3.1513726234436037 3.182042145729065 3.161441421508789 3.1020395278930666 3.140230822563171 3.1513837575912476
          3.1349234104156496 3.117065596580505 3.127822256088257 3.105133557319641 3.0990731954574584 3.133902597427368
          3.1121402025222777 3.108054447174072 3.1358025312423705 3.118756651878357 3.13723509311676 3.111195206642151
          3.1642407417297362 3.1336161136627196 3.1501543283462525 3.135072112083435 3.1240139245986938 3.102434206008911
          3.1555125236511232 3.147100019454956 3.1520338535308836 3.162476372718811 3.1514564990997314 3.1324542760849
          3.1482344388961794 3.149363088607788 3.1699485778808594 3.1622995138168335 3.1661129236221313 3.1455066204071045
          3.1751219511032103 3.165861225128174 3.158483552932739 3.1431638479232786 3.1621816873550417 3.1621451377868652
          3.191255569458008 3.1906694173812866 3.1768670082092285 3.1856639623641967 3.208908462524414 3.21376485824585
          3.2168726921081543 3.2289273262023928 3.2442108631134032 3.214166259765625 3.2471291542053224 3.2482521772384643
          3.2582677841186523 3.25304114818573 3.2838335990905763 3.296568775177002 3.2862323999404905 3.2658995151519776
          3.27852258682251 3.284083914756775 3.2991149187088014 3.3082269430160522 3.289641809463501 3.324652886390686
          3.3276083707809447 3.3209399700164797 3.304508352279663 3.300545811653137 3.3360744953155517 3.3127855539321898
          3.3342525720596314 3.356143069267273 3.2438687562942503 3.169833445549011 3.2455533742904663 3.218907356262207
          3.236564517021179 3.2431876182556154 3.1330584049224854 3.2690675973892214 3.215444874763489 3.181236219406128
          3.1952396392822267 3.179675245285034 3.0985968112945557 3.236135721206665 3.1880019187927244 3.1618219375610352
          3.179318881034851 3.1411789417266847 3.1310238599777223 3.149742317199707 3.1690662622451784 3.162933897972107
          3.14485445022583 3.1091482877731322 3.195099949836731 3.140149545669556 3.1123066902160645 3.21097731590271
          3.1312344074249268 3.1104270696640013 3.093449831008911 3.159863090515137 3.0653724908828734 3.144623136520386
          3.0967479944229126 3.116437792778015 3.1212239027023316 3.0581504583358763 3.129341959953308 3.1106055974960327
          3.0859663248062135 3.118414521217346 3.098247742652893 3.161748003959656 3.0901966094970703 3.090819072723389
          3.106603193283081 3.146989130973816 3.1222138166427613 3.1460248708724974 3.133473443984985 3.099814748764038
          3.1316562414169313 3.1580016374588014 3.1561094999313353 3.1290525913238527 3.1263474464416503 3.1088302612304686
          3.133440709114075 3.1394351959228515 3.147664022445679 3.1476795196533205 3.1416056632995604 3.1340532302856445
          3.145262908935547 3.156498432159424 3.1423275232315064 3.1730501890182494 3.175082635879517 3.170233631134033
          3.174672245979309 3.192924380302429 3.204368805885315 3.2016781091690065 3.2139172077178957 3.2147666931152346
          3.2197070837020876 3.2369823694229125 3.2413614273071287 3.268970322608948 3.2567017316818236 3.2364150047302247
          3.2257476091384887 3.270547556877136 3.265891671180725 3.256671905517578 3.2994958639144896 3.271302676200867
          3.280091738700867 3.290932536125183 3.305117464065552 3.299875521659851 3.324767994880676 3.280685567855835
          3.336859107017517 3.326733613014221 3.314800238609314 3.3366392850875854 3.3396173238754274 3.370238780975342
          3.25349018573761 3.2390023708343505 3.2823248147964477 3.2159307479858397 3.215642285346985 3.201533651351929
          3.136978602409363 3.208911156654358 3.165511465072632 3.141665053367615 3.158476448059082 3.137574028968811
          3.231564497947693 3.1976014137268067 3.1256134033203127 3.1757206439971926 3.178948092460632 3.172587037086487
          3.1998985052108764 3.108261060714722 3.1872920989990234 3.173890209197998 3.1152715921401977 3.133706259727478
          3.142298460006714 3.1389071464538576 3.149071288108826 3.1129489183425902 3.162192463874817 3.1949386835098266
          3.094931626319885 3.1275683879852294 3.1410391330718994 3.1081851005554197 3.0987744331359863 3.1548484325408936
          3.077710485458374 3.0871684312820435 3.101235103607178 3.1116992473602294 3.081369161605835 3.078660011291504
          3.050709843635559 3.1049138784408568 3.0949943542480467 3.12797155380249 3.1028451919555664 3.0918087720870973
          3.144001507759094 3.113958239555359 3.083119344711304 3.1218905448913574 3.090098762512207 3.129889464378357
          3.0880017042160035 3.1313830852508544 3.1271505117416383 3.1427081346511843 3.130746364593506 3.128449892997742
          3.1421708822250367 3.1220270872116087 3.149694013595581 3.1151865482330323 3.139403772354126 3.133370590209961
          3.168160820007324 3.156581234931946 3.149271750450134 3.1740583419799804 3.1695673942565916 3.171238398551941
          3.155109691619873 3.187483882904053 3.1812165498733522 3.1850510597229005 3.2175376653671264 3.2321008682250976
          3.2186670303344727 3.2210609674453736 3.249255967140198 3.222209405899048 3.2451459169387817 3.2732472896575926
          3.2486490488052366 3.2709508895874024 3.2849802732467652 3.2934238433837892 3.2623711109161375 3.292525053024292
          3.269081544876099 3.3102590799331666 3.295912027359009 3.31767680644989 3.309454011917114 3.3073306322097777
          3.3124072313308717 3.326246213912964 3.332966756820679 3.3256823301315306 3.243055057525635 3.2282020807266236
          3.2678157329559325 3.248799228668213 3.2422614336013793 3.149896740913391 3.193661832809448 3.191319727897644
          3.216610908508301 3.2016470670700072 3.157732892036438 3.167403244972229 3.156216621398926 3.12562415599823
          3.1274051904678344 3.1539238691329956 3.148759865760803 3.1739810705184937 3.094980478286743 3.2020336151123048
          3.1148624181747437 3.118669629096985 3.0825065851211546 3.0924600839614866 3.147727394104004 3.103496241569519
          3.1382917881011965 3.1642877101898192 3.09925262928009 3.068598437309265 3.091284465789795 3.096228766441345
          3.129018259048462 3.072481656074524 3.092404103279114 3.1536901950836183 3.081572484970093 3.127145195007324
          3.0548965692520142 3.1483436107635496 3.134859728813171 3.1325788736343383 3.1070675373077394 3.067874479293823
          3.115993356704712 3.0921265840530396 3.0756470203399657 3.0979539155960083 3.0358438968658445 3.1070600271224977
          3.08670494556427 3.1320482015609743 3.0683457136154173 3.0979689598083495 3.103842258453369 3.0974902153015136
          3.112030053138733 3.10332612991333 3.135931301116943 3.097179675102234 3.132724380493164 3.1175599098205566
          3.127608370780945 3.128116011619568 3.1499200820922852 3.1235986232757567 3.1299153566360474 3.146505260467529
          3.151326084136963 3.170888352394104 3.1260889530181886 3.157484841346741 3.1792460680007935 3.1995211839675903
          3.1820724248886108 3.2088528871536255 3.192168688774109 3.2116086959838865 3.2188209533691405 3.2344380140304567
          3.2180517435073854 3.231480574607849 3.2220356702804565 3.252090263366699 3.2283637046813967 3.264308547973633
          3.2713538646697997 3.30234010219574 3.305236315727234 3.2522364139556883 3.274551796913147 3.275411319732666
          3.29433650970459 3.3087212085723876 3.3178738832473753 3.308062434196472 3.3409727096557615 3.3224015474319457
          3.3216197013854982 3.293313479423523 3.2765380144119263 3.263360834121704 3.1998002767562865 3.2698472261428835
          3.203600859642029 3.2235865354537965 3.187343716621399 3.172214388847351 3.1491421461105347 3.1795679569244384
          3.1488852977752684 3.1385149240493773 3.1099576234817503 3.1609588384628298 3.1560481548309327 3.1420085191726685
          3.1431180000305177 3.1041972637176514 3.1037259101867676 3.177738881111145 3.1432427644729612 3.170345664024353
          3.1237173557281492 3.084236979484558 3.121555805206299 3.163106608390808 3.057501482963562 3.0933913707733156
          3.1046085596084594 3.0923420190811157 3.083663249015808 3.01090030670166 3.073237085342407 3.0790939331054688
          3.09377281665802 3.0506924629211425 3.0795101881027223 3.048460865020752 3.0832056760787965 3.0427061796188353
          3.073637914657593 3.048548436164856 3.052888536453247 3.0489999532699583 3.0681806087493895 3.0784814596176147
          3.0818660497665404 3.0267807960510256 3.0735287427902223 3.072927141189575 3.093378186225891 3.133465623855591
          3.105551838874817 3.080567812919617 3.1086450815200806 3.1194172620773317 3.118891167640686 3.138259935379028
          3.1073036432266234 3.1207375049591066 3.096659231185913 3.127537178993225 3.1115395069122314 3.1162458658218384
          3.120570349693298 3.1254787921905516 3.142783284187317 3.1363653898239137 3.1453895568847656 3.150493860244751
          3.154062056541443 3.1913606405258177 3.1501606702804565 3.16007239818573 3.2004270792007445 3.185032033920288
          3.186130952835083 3.1888680696487426 3.206137442588806 3.2011969327926635 3.199221706390381 3.2113801002502442
          3.212694025039673 3.2132784366607665 3.248505783081055 3.2495982885360717 3.2678227186203004 3.281285858154297
          3.2738991260528563 3.2744859218597413 3.277272582054138 3.2676459312438966 3.292586588859558 3.300398564338684
          3.31415855884552 3.295569157600403 3.279935336112976 3.3303998947143554 3.3106406211853026 3.2925822019577025
          3.3053677797317507 3.262871265411377 3.1989607572555543 3.2057480573654176 3.183642792701721 3.186253547668457
          3.2182462930679323 3.1265848159790037 3.191699743270874 3.1567872047424315 3.126759886741638 3.154578447341919
          3.131658983230591 3.1428322315216066 3.1895029067993166 3.151608967781067 3.110071635246277 3.163225793838501
          3.163921761512756 3.078152370452881 3.123004984855652 3.1274134874343873 3.097765398025513 3.133457899093628
          3.132796812057495 3.1255726337432863 3.0903501749038695 3.093930172920227 3.0865352630615233 3.1133676052093504
          3.091199207305908 3.104509139060974 3.1068905353546143 3.055768609046936 3.0590624094009398 3.12900288105011
          3.02097225189209 3.0097657442092896 3.01442289352417 3.038115692138672 3.0600494861602785 3.0776055574417116
          3.071528172492981 3.0918985843658446 3.148477053642273 3.071315884590149 3.037493920326233 3.070354199409485
          3.06474084854126 3.0765026807785034 3.11496102809906 3.07108359336853 3.1079484462738036 3.05681574344635
          3.0944618225097655 3.1022641181945803 3.116943287849426 3.123238134384155 3.0978097677230836 3.101417803764343
          3.143361449241638 3.0946250677108766 3.1144723176956175 3.1235007762908937 3.1242507696151733 3.1136390447616575
          3.133530116081238 3.118776798248291 3.134703779220581 3.1531455278396607 3.152482104301453 3.1552925586700438
          3.160574197769165 3.1852572679519655 3.162648057937622 3.184313988685608 3.1787179946899413 3.175365662574768
          3.2090463399887086 3.175564932823181 3.218740200996399 3.2091744184494018 3.2215615272521974 3.2440215349197388
          3.2389318704605103 3.271290349960327 3.231898069381714 3.2571491241455077 3.2574845790863036 3.2973708629608156
          3.2817367553710937 3.272699403762817 3.257364821434021 3.2634132146835326 3.299346351623535 3.2964529991149902
          3.3015072345733643 3.29269540309906 3.323045349121094 3.2846008062362673 3.252943420410156 3.242278480529785
          3.2435096502304077 3.194649600982666 3.2261736154556275 3.160506749153137 3.1687866926193236 3.199877691268921
          3.1241997480392456 3.1140162706375123 3.1067843675613402 3.15167441368103 3.201596403121948 3.1346115827560426
          3.1176392793655396 3.0917587518692016 3.1413377285003663 3.10771062374115 3.1057163000106813 3.147562527656555
          3.1239548206329344 3.079894471168518 3.0989959239959717 3.0654002904891966 3.1172871351242066 3.0776518106460573
          3.0768598556518554 3.0959733724594116 3.1075747489929197 3.1135685443878174 3.095098066329956 3.1216240882873536
          3.0493835687637327 3.0687146186828613 3.0606295108795165 3.108784294128418 3.025565671920776 3.0544211149215696
          3.0566319942474367 3.054740571975708 3.040007162094116 3.035750722885132 3.0304751873016356 3.035782718658447
          2.999552059173584 3.094238758087158 3.006977605819702 3.110510802268982 3.123723578453064 3.037599039077759
          3.050712466239929 3.063899278640747 3.0239500284194945 3.0878488540649416 3.100562834739685 3.06428325176239
          3.084587812423706 3.100079584121704 3.0897857427597044 3.0811238527297973 3.0972941875457765 3.111925196647644
          3.1061293125152587 3.1325703144073485 3.1086276531219483 3.114444351196289 3.1115263223648073 3.1033504247665404
          3.1170655727386474 3.1099276781082152 3.123071622848511 3.133945608139038 3.139633893966675 3.144182062149048
          3.147165536880493 3.1501752614974974 3.1809324264526366 3.1838768243789675 3.174501729011536 3.1997939586639403
          3.201303243637085 3.210402822494507 3.2277247428894045 3.229701375961304 3.2453211545944214 3.230205225944519
          3.2101685047149657 3.257325792312622 3.2535274505615233 3.2588329315185547 3.2662772655487062 3.26446852684021
          3.278079295158386 3.2855708360672 3.2956087589263916 3.3017138719558714 3.288227367401123 3.3028448104858397
          3.3021398305892946 3.301767635345459 3.2335041999816894 3.2195137977600097 3.200150966644287 3.2125775098800657
          3.1919785022735594 3.164996838569641 3.137442970275879 3.153244709968567 3.149829626083374 3.155834603309631
          3.145257997512817 3.0934237003326417 3.132263708114624 3.14241418838501 3.092920684814453 3.136057233810425
          3.130078601837158 3.163715100288391 3.098555898666382 3.0951231956481933 3.1384521245956423 3.140183448791504
          3.0769234895706177 3.035525918006897 3.0801813125610353 3.1258370161056517 3.0825180768966676 3.118014860153198
          3.0707999229431153 3.0700519561767576 3.055976462364197 3.0323476791381836 3.0768999338150023 3.0689459800720216
          3.0481966733932495 3.075077772140503 3.0943910598754885 3.056256318092346 3.0691914558410645 2.9863136529922487
          2.998411846160889 3.0111265897750856 3.0565593242645264 3.0648425817489624 3.001724290847778 3.0147829055786133
          3.017176032066345 3.0368637323379515 3.0305429220199587 3.0412870168685915 3.0887144565582276 3.097005558013916
          3.0253552198410034 3.0706532478332518 3.0576092004776 3.0771713256835938 3.0861258029937746 3.0714575052261353
          3.0820117950439454 3.0853225946426392 3.0824673175811768 3.0923411369323732 3.073047924041748 3.1050467252731324