<VTKFile type="PolyData" version="1.0" byte_order="LittleEndian" header_type="UInt64">
  <PolyData>
    <Piece NumberOfPoints="2500" NumberOfVerts="0" NumberOfLines="0" NumberOfStrips="0" NumberOfPolys="2401">
      <PointData>
        <DataArray type="Float32" Name="zvalue" NumberOfComponents="1" format="ascii" RangeMin="1.8593153357505798" RangeMax="84.75120544433594">
          80.57767105102539 72.04448699951172 64.32312393188477 61.98435592651367 54.56394577026367 52.7264347076416
          50.838029861450195 44.31243133544922 40.95976448059082 40.479129791259766 38.14004135131836 34.3328857421875
          33.709293365478516 29.815439224243164 28.953280448913574 26.9597225189209 25.79820728302002 24.56476879119873
          24.8250732421875 22.97179126739502 22.45211696624756 21.257558822631836 20.187870979309082 20.184770584106445
          20.531417846679688 20.654261589050293 19.921173095703125 19.72123146057129 19.890820503234863 20.691609382629395
          21.04873561859131 21.30092430114746 21.558884620666504 22.602816581726074 24.47611141204834 25.13715648651123
          27.128565788269043 29.032824516296387 30.979694366455078 34.714932441711426 36.671878814697266 38.292280197143555
          41.58575630187988 44.99276542663574 49.85832405090332 51.29066848754883 56.31894874572754 62.10200500488281
          67.27373123168945 73.95811462402344 73.10945129394531 66.00723648071289 62.9220085144043 58.46085166931152
          49.07357406616211 47.25217247009277 43.93256759643555 40.729305267333984 38.53788757324219 34.925132751464844
          32.53542518615723 30.772722244262695 27.804564476013184 26.941460609436035 24.46988010406494 22.98414897918701
          21.882001876831055 20.309770584106445 19.590033531188965 20.917842864990234 19.101022720336914 17.944397926330566
          17.87958335876465 18.985386848449707 17.224746704101562 17.00477886199951 17.219301223754883 17.190723419189453
          16.754741668701172 17.901053428649902 17.273694038391113 19.549989700317383 18.988571166992188 19.565171241760254
          22.45091438293457 22.386096000671387 23.837736129760742 25.25615119934082 27.63268280029297 28.652982711791992
          31.297871589660645 34.00310516357422 36.027931213378906 40.447771072387695 42.115997314453125 47.24759292602539
          51.80512237548828 56.90276336669922 63.05140495300293 65.39437484741211 64.09250068664551 63.52791404724121
          57.10009574890137 50.92279243469238 47.96546173095703 41.22564697265625 40.52324867248535 33.390066146850586
          33.117506980895996 31.22331142425537 28.39259433746338 25.912588119506836 25.444951057434082 23.574840545654297
          20.662282943725586 20.848286628723145 18.895835876464844 18.634854316711426 16.9136323928833 17.215633392333984
          15.618469715118408 15.62511396408081 15.918261528015137 14.326653003692627 15.453440189361572 14.277318000793457
          15.099065780639648 14.751113891601562 15.328806400299072 15.18827772140503 14.695106029510498 15.600910186767578
          16.616848945617676 17.234844207763672 18.284984588623047 18.80689811706543 20.53701877593994 21.968518257141113
          23.08740520477295 26.3987398147583 29.095653533935547 29.194581031799316 33.36881446838379 34.978960037231445
          37.331809997558594 41.317142486572266 44.365535736083984 50.60319900512695 55.17035675048828 59.82792282104492
          65.4257698059082 55.94078063964844 51.531471252441406 44.649864196777344 42.79561996459961 36.63214302062988
          32.65222930908203 33.32267761230469 27.952571868896484 27.48096752166748 25.75174617767334 22.474790573120117
          21.420547485351562 19.929308891296387 18.201287269592285 17.09292984008789 16.418914318084717 15.31097412109375
          15.083814144134521 14.201344013214111 13.32240343093872 12.989288330078125 12.911494255065918 12.583292007446289
          12.449488639831543 12.653960227966309 12.033158302307129 12.509788990020752 11.986497402191162 12.256466388702393
          13.142529964447021 13.330616474151611 14.011147022247314 13.910520553588867 15.72877550125122 15.741846084594727
          17.434001922607422 18.123644828796387 19.675806045532227 21.34621524810791 24.698403358459473 26.0413818359375
          28.73037624359131 31.00261688232422 34.571340560913086 36.454843521118164 40.73695373535156 45.87910079956055
          49.2866153717041 56.45454978942871 54.701148986816406 52.53322982788086 47.454803466796875 42.10845947265625
          37.215654373168945 32.874887466430664 30.37563991546631 27.12941265106201 25.873866081237793 23.926527976989746
          22.49263858795166 19.41081142425537 18.320180892944336 18.243205070495605 16.035866260528564 15.321865558624268
          14.133326530456543 13.323921203613281 11.910158634185791 11.932435512542725 11.512912273406982 11.13172721862793
          11.611023902893066 10.72870922088623 10.726836204528809 10.317170143127441 10.310205936431885 10.50846242904663
          10.70352554321289 10.571266651153564 10.938838005065918 11.38716459274292 12.439308166503906 12.525320529937744
          13.661195278167725 14.120745182037354 14.651917934417725 16.22264289855957 17.18049716949463 18.983078956604004
          20.965450286865234 23.80554485321045 25.297707557678223 26.804941177368164 30.78734588623047 33.300790786743164
          37.1127872467041 41.20743751525879 46.4416446685791 52.69955635070801 51.60416221618652 48.19083213806152
          41.75506401062012 38.20610427856445 35.04802894592285 31.568510055541992 26.719839096069336 23.79363250732422
          23.35488796234131 21.048115730285645 19.734779357910156 18.753485679626465 16.815166473388672 15.387972354888916
          13.308762550354004 12.612851619720459 11.529638290405273 11.265987873077393 11.00123643875122 10.438368320465088
          9.839781761169434 9.80707597732544 9.024997234344482 8.863980770111084 9.273204326629639 8.854805946350098
          8.505142211914062 8.523046016693115 9.080053329467773 9.564588069915771 9.831705093383789 10.28368330001831
          10.450986385345459 10.684614658355713 10.96522569656372 12.208122730255127 13.730883598327637 14.560875415802002
          15.460826396942139 16.65157127380371 18.59144687652588 20.011014938354492 21.515565872192383 24.726021766662598
          26.90159797668457 29.434953689575195 33.18547821044922 38.382972717285156 40.82774353027344 45.65609169006348
          49.71207809448242 42.51095962524414 40.27571105957031 36.35216522216797 31.455690383911133 28.351112365722656
          25.143242835998535 22.691136360168457 21.10337543487549 19.59376335144043 17.65902328491211 15.916080474853516
          14.832451343536377 12.351881980895996 12.45302963256836 11.04508924484253 10.47901964187622 10.057914733886719
          9.1492919921875 8.954541206359863 8.258097171783447 8.50638198852539 7.95807147026062 7.735530376434326
          7.562578439712524 7.591698408126831 7.956006288528442 7.884487152099609 7.739556074142456 8.089176654815674
          8.396414279937744 8.703352451324463 9.242228984832764 9.055652141571045 10.192314147949219 11.14608097076416
          11.299072742462158 12.77592945098877 13.700830936431885 14.51181697845459 16.300262451171875 17.819512367248535
          19.958468437194824 21.814714431762695 24.76713752746582 26.985965728759766 29.749357223510742 33.09516716003418
          36.38690376281738 40.64592361450195 45.829471588134766 40.42598342895508 35.246355056762695 31.71072769165039
          28.263219833374023 24.862022399902344 21.503690719604492 19.61166000366211 19.270885467529297 16.37361240386963
          15.34147596359253 14.148640155792236 12.86336898803711 11.588891983032227 10.444091320037842 9.910139083862305
          9.34468412399292 9.186406135559082 8.156280994415283 7.595120429992676 7.34468150138855 7.079676151275635
          6.95450234413147 6.618063926696777 6.58440089225769 6.408893346786499 6.897366046905518 6.7318010330200195
          7.208095550537109 6.860656976699829 7.548180103302002 7.539890766143799 7.921343088150024 8.258849620819092
          8.861227989196777 9.398440837860107 9.865115642547607 11.259808540344238 11.693904876708984 12.872478008270264
          14.23465347290039 16.49643325805664 18.013773918151855 20.52727699279785 23.589324951171875 23.598995208740234
          27.61984157562256 31.095704078674316 33.93918418884277 39.01247787475586 41.47479248046875 37.794281005859375
          32.89681339263916 27.21141529083252 24.14643955230713 22.89952850341797 21.276668548583984 16.576669692993164
          15.16355276107788 14.264252185821533 12.969767570495605 12.041600227355957 10.842830181121826 10.431437492370605
          8.746678829193115 8.905158042907715 8.6358003616333 7.482226371765137 7.292877674102783 6.722301483154297
          6.44636344909668 6.3140709400177 6.283797264099121 5.946728706359863 5.75139307975769 6.082192659378052
          5.974232912063599 5.960461854934692 5.751404047012329 6.155702829360962 6.3472068309783936 6.332448482513428
          6.99209451675415 7.519424200057983 7.857521057128906 8.364291667938232 8.822280406951904 9.715545177459717
          10.399943351745605 11.571821689605713 12.838000297546387 14.426239967346191 16.242178440093994 18.089272499084473
          20.151162147521973 22.17698574066162 25.391565322875977 29.514161109924316 32.825639724731445 35.882789611816406
          38.71992111206055 34.70034599304199 30.075791358947754 27.250874519348145 23.42542266845703 20.520780563354492
          17.057822227478027 16.571146488189697 14.582772731781006 12.658327102661133 11.05393648147583 11.68634843826294
          10.002372741699219 9.611639976501465 9.057464122772217 7.9299397468566895 7.348730802536011 6.932416200637817
          6.120461463928223 6.125038146972656 5.720146894454956 5.6387248039245605 5.3994622230529785 5.269924640655518
          5.176942825317383 5.296341419219971 5.100755214691162 5.398345470428467 5.320139646530151 5.575605392456055
          5.786673545837402 5.760990858078003 5.973119735717773 6.574060440063477 7.142299175262451 7.085119009017944
          7.589849472045898 8.947847843170166 9.460854530334473 10.285856246948242 11.56755256652832 13.21391248703003
          15.148509502410889 16.46252155303955 18.335763931274414 21.072075843811035 22.753694534301758 25.441061973571777
          29.41121196746826 33.73642158508301 34.78636360168457 29.581521034240723 26.48550319671631 23.756108283996582
          21.991172790527344 17.21546173095703 16.14774465560913 13.755536079406738 12.845112800598145 12.05428409576416
          10.777861595153809 9.759387016296387 8.739989280700684 8.19139814376831 7.644782543182373 7.358193874359131
          6.888791799545288 6.313606262207031 5.791446924209595 5.377394676208496 5.354358911514282 5.194227457046509
          5.109848260879517 4.726312160491943 4.627619504928589 4.751737833023071 4.655257940292358 4.708806753158569
          4.522053480148315 4.80888819694519 4.82720160484314 5.392657995223999 5.579091548919678 5.739004850387573
          6.254279136657715 6.33713960647583 6.828526973724365 7.859056234359741 8.805204391479492 9.626344203948975
          10.73008680343628 12.350282669067383 13.501760959625244 14.88179349899292 16.61131477355957 18.50559425354004
          21.28290557861328 24.751266479492188 29.528526306152344 30.388107299804688 33.51997756958008 26.88054656982422
          24.308948516845703 21.768470764160156 18.993297576904297 16.238131046295166 14.412679672241211 13.713883399963379
          11.942075729370117 11.164139747619629 9.493934631347656 8.787405490875244 8.100640296936035 8.127728939056396
          7.2621166706085205 7.00674033164978 6.011579751968384 5.497788906097412 5.6681084632873535 4.862638473510742
          4.570735454559326 4.545770168304443 4.46363091468811 4.2956438064575195 4.327415466308594 4.194497108459473
          4.202864646911621 4.222400188446045 4.355985879898071 4.4910972118377686 4.59638524055481 4.729101181030273
          4.671557903289795 5.232014179229736 5.7032976150512695 6.1045615673065186 6.52428126335144 7.038268089294434
          7.336221933364868 8.330376148223877 9.328028202056885 10.116326808929443 12.148524284362793 14.024224758148193
          15.140834331512451 17.47054672241211 20.138501167297363 23.500959396362305 25.845796585083008 28.92508602142334
          29.322638511657715 25.85269069671631 23.118144989013672 19.806364059448242 17.592345237731934 15.755290508270264
          14.768328666687012 12.25434923171997 10.56465196609497 10.205228328704834 8.79761266708374 8.369379043579102
          7.7146100997924805 7.340956687927246 6.737074613571167 6.290883302688599 5.568763494491577 5.230297803878784
          4.687244176864624 4.638830900192261 4.470455884933472 4.14891505241394 3.944944143295288 3.9787784814834595
          3.7326642274856567 3.8824461698532104 3.6938488483428955 3.9546881914138794 3.9019391536712646 3.8205517530441284
          4.183004856109619 4.096386671066284 4.441372632980347 4.774725437164307 5.234274387359619 5.7536094188690186
          6.020411014556885 6.229272127151489 6.90626072883606 8.193514585494995 8.496225833892822 10.3077974319458
          12.33194351196289 13.514077186584473 14.245779991149902 16.336068153381348 18.73601245880127 20.88878345489502
          23.135055541992188 28.409324645996094 27.18357276916504 24.560884475708008 20.989081382751465 17.306821823120117
          15.989835262298584 13.669886589050293 12.643958568572998 11.398298740386963 9.821112155914307 9.732152462005615
          8.573670387268066 8.037324666976929 7.372905731201172 6.825103759765625 5.840744733810425 5.545562505722046
          5.12683629989624 4.541910171508789 4.48168683052063 3.932582974433899 4.005981802940369 3.6547356843948364
          3.6093908548355103 3.6894092559814453 3.420345902442932 3.458997130393982 3.421663522720337 3.593209147453308
          3.537363648414612 3.496857523918152 3.8164942264556885 4.018190503120422 4.106902599334717 4.278594732284546
          4.580366134643555 5.122936010360718 5.215850114822388 5.697880506515503 6.966222763061523 7.159469842910767
          7.724304914474487 8.928143501281738 10.169486045837402 12.076732158660889 13.618332386016846 14.964277267456055
          17.563918113708496 19.31826877593994 22.397780418395996 26.035181045532227 25.062397956848145 21.922597885131836
          18.4768123626709 17.45850944519043 15.315786838531494 12.27596139907837 11.44272518157959 10.936997413635254
          9.507090091705322 9.025808334350586 8.079574346542358 7.518023252487183 6.564735651016235 6.117819786071777
          5.633295059204102 5.037179946899414 4.677260875701904 4.38980770111084 4.2734339237213135 3.913508176803589
          3.4168365001678467 3.4913365840911865 3.325540781021118 2.959796190261841 3.166799783706665 3.1835185289382935
          3.0752967596054077 3.256765127182007 3.232944965362549 3.4856278896331787 3.5070393085479736 3.5708539485931396
          4.011235952377319 4.008748888969421 4.18168568611145 4.559260606765747 4.793859958648682 5.414699077606201
          6.372944355010986 7.1004958152771 7.382703065872192 8.940601348876953 10.453609943389893 11.312498569488525
          12.105721950531006 14.646137714385986 15.926506996154785 18.054347038269043 21.98946189880371 24.244668006896973
          24.85221004486084 21.424057006835938 18.42716884613037 16.790127754211426 14.49869441986084 13.309954643249512
          11.712692737579346 10.287201881408691 9.085179805755615 8.680896282196045 7.973086357116699 6.817454099655151
          6.300394773483276 5.805716276168823 5.190911769866943 4.584258556365967 4.202144622802734 4.023322105407715
          3.7770687341690063 3.311544418334961 3.2157243490219116 3.332330346107483 3.0700347423553467 2.8939247131347656
          3.0455946922302246 2.8462162017822266 2.8646247386932373 2.960000157356262 3.0320608615875244 3.1212128400802612
          3.208952307701111 3.186381220817566 3.4638816118240356 3.617095470428467 3.9704208374023438 4.229183912277222
          4.566987991333008 5.241817235946655 6.034700870513916 5.9587624073028564 7.128987550735474 8.006836414337158
          9.343935489654541 10.423134326934814 11.177978038787842 13.32197380065918 14.294753074645996 17.53891658782959
          20.04480266571045 23.262014389038086 22.06693744659424 18.922587394714355 16.621305465698242 14.697015285491943
          13.872886180877686 12.375126838684082 10.850160598754883 9.50121545791626 9.123786926269531 7.723740577697754
          6.9191508293151855 6.253530502319336 5.72858738899231 5.395564317703247 4.964022159576416 4.671790838241577
          4.087348461151123 3.562134861946106 3.26061749458313 3.204774260520935 2.943545341491699 2.9704688787460327
          2.8156760931015015 2.6325937509536743 2.7311487197875977 2.7253546714782715 2.5731170177459717 2.75361967086792
          2.792554259300232 2.8490476608276367 2.9908783435821533 3.094083786010742 3.2813827991485596 3.3777689933776855
          3.5816991329193115 3.8016090393066406 4.333660125732422 4.853312969207764 5.495432138442993 5.799683332443237
          6.594490051269531 7.567646741867065 8.358553409576416 9.153340816497803 10.418886661529541 12.345199584960938
          13.646960258483887 17.27504253387451 18.023324966430664 21.118929862976074 21.575522422790527 17.05306053161621
          16.376957893371582 13.481411933898926 11.920058250427246 11.210264205932617 9.706066131591797 9.373679637908936
          8.332345008850098 7.578800678253174 6.773518800735474 6.161101341247559 5.643336534500122 4.930397033691406
          4.546422958374023 4.091808080673218 3.743990421295166 3.419056534767151 3.0526620149612427 2.992238402366638
          2.769616961479187 2.6222440004348755 2.654278874397278 2.527774214744568 2.5531301498413086 2.4823930263519287
          2.501986026763916 2.563766121864319 2.5235843658447266 2.686009645462036 2.7999801635742188 2.8180787563323975
          3.138038754463196 3.234873056411743 3.578102946281433 3.722718596458435 3.875623106956482 4.311484336853027
          4.6228203773498535 5.493639945983887 5.755378246307373 6.887070655822754 7.885324239730835 9.284047603607178
          10.768452167510986 12.029263973236084 13.581835269927979 14.96778154373169 18.008477210998535 20.50072479248047
          19.902042388916016 17.292231559753418 15.274189472198486 13.693644046783447 11.83875322341919 10.286645412445068
          9.414509773254395 8.264179468154907 7.795708179473877 6.791131258010864 6.607513904571533 5.885592460632324
          5.442446947097778 4.5094685554504395 4.179509162902832 3.7520991563796997 3.246206283569336 3.223020076751709
          2.9222618341445923 2.7832471132278442 2.6343586444854736 2.528719186782837 2.6060874462127686 2.452505350112915
          2.3872694969177246 2.3405243158340454 2.4287941455841064 2.4436659812927246 2.45183789730072 2.5106849670410156
          2.4947372674942017 2.732056140899658 2.791831612586975 3.0169126987457275 3.3928595781326294 3.5899382829666138
          4.020621418952942 4.276554107666016 4.643871545791626 5.116520881652832 5.597072124481201 6.626721143722534
          8.101049900054932 8.669798851013184 9.765857219696045 11.166312217712402 13.416388988494873 16.098894119262695
          17.842145919799805 19.804078102111816 18.48642063140869 16.22123622894287 13.995806217193604 12.718400001525879
          11.2780179977417 10.57856273651123 9.063202857971191 7.834666013717651 7.394324541091919 6.472506046295166
          6.172570705413818 5.450507879257202 5.022522211074829 4.721037864685059 3.8712456226348877 3.6106046438217163
          3.213107705116272 3.04540479183197 2.772225022315979 2.706628680229187 2.4810023307800293 2.518936514854431
          2.4226255416870117 2.2840471267700195 2.2883243560791016 2.15352201461792 2.316249370574951 2.244522452354431
          2.2262916564941406 2.415809750556946 2.6704846620559692 2.581871509552002 2.5261634588241577 2.856050968170166
          3.166235327720642 3.2615513801574707 3.741087555885315 3.9581212997436523 4.42675518989563 4.850245475769043
          5.731141805648804 6.468195915222168 7.639189958572388 8.067441463470459 9.119811058044434 10.358928680419922
          12.646772384643555 14.482354640960693 16.670964241027832 21.010062217712402 19.026650428771973 15.677985191345215
          14.613549709320068 12.125758647918701 10.07891845703125 9.384393692016602 8.211154699325562 8.127676963806152
          7.471027612686157 6.5798118114471436 5.90290641784668 5.403039932250977 4.536219120025635 4.09670615196228
          3.7873259782791138 3.499536633491516 3.0974910259246826 2.949699640274048 2.539685368537903 2.4955378770828247
          2.370035767555237 2.3154619932174683 2.1265488266944885 2.1636550426483154 2.125433087348938 2.158772826194763
          2.0352426171302795 2.2101083993911743 2.1248143911361694 2.3934590816497803 2.3689414262771606 2.5496822595596313
          2.650526285171509 2.8024165630340576 2.936947226524353 3.3051507472991943 3.3130552768707275 3.8028265237808228
          4.18432092666626 4.696775913238525 5.414512395858765 6.37787938117981 7.095984697341919 8.256094694137573
          9.324157238006592 11.14116621017456 11.906280994415283 14.3993821144104 16.485985279083252 18.899744987487793
          18.11600685119629 14.987728118896484 13.06702709197998 12.21738862991333 11.113662719726562 9.415265560150146
          8.80685567855835 7.515666484832764 6.562793254852295 6.227960109710693 5.728623628616333 5.018824338912964
          4.524523735046387 3.9748682975769043 3.6416972875595093 3.1804784536361694 2.904476284980774 2.65267014503479
          2.5903451442718506 2.3695883750915527 2.3220510482788086 2.115468740463257 2.0753839015960693 2.0835440158843994
          2.0933768153190613 2.1206116676330566 1.9765347242355347 2.1319791078567505 1.976688265800476 2.1730480194091797
          2.3449349403381348 2.2679495811462402 2.5798966884613037 2.667567253112793 2.8866127729415894 3.067733645439148
          3.2211503982543945 3.5820791721343994 4.061152219772339 4.401663303375244 5.420567989349365 5.9818785190582275
          6.951926946640015 7.754321575164795 9.050848007202148 10.402101516723633 11.817915916442871 14.296513080596924
          17.0982723236084 18.465023040771484 17.77686595916748 15.737658023834229 13.20219898223877 11.80800724029541
          9.787467956542969 9.136104583740234 8.30229902267456 7.179861783981323 6.503727197647095 6.345829010009766
          5.436029672622681 4.686977386474609 4.092908143997192 3.6881009340286255 3.354923129081726 3.1873286962509155
          2.7802101373672485 2.52164363861084 2.6690388917922974 2.3128323554992676 2.4412436485290527 2.1355323791503906
          2.0902018547058105 2.0200368762016296 1.877560317516327 2.013931095600128 1.9364210963249207 2.165526270866394
          2.089377999305725 2.144625663757324 2.3667373657226562 2.2414798736572266 2.377203106880188 2.6672877073287964
          2.777318596839905 3.0240453481674194 3.2557848691940308 3.6700174808502197 4.18713903427124 4.384190320968628
          4.9020631313323975 5.678552865982056 6.547274112701416 8.104090690612793 9.03706979751587 9.474374294281006
          11.20051622390747 14.42851209640503 16.528985023498535 19.270809173583984 18.43278980255127 15.151145935058594
          12.340619564056396 10.94167184829712 9.928725719451904 9.281095027923584 7.7218616008758545 6.906938314437866
          6.473562479019165 5.753226041793823 5.276194095611572 4.4942567348480225 4.0614776611328125 3.6525055170059204
          3.321853995323181 3.035051941871643 2.635194182395935 2.5178768634796143 2.4101076126098633 2.3317697048187256
          1.9797483682632446 1.9240042567253113 2.0043169260025024 2.0410723090171814 2.051898777484894 2.035590171813965
          1.9319663643836975 1.9036458730697632 2.0401687622070312 2.2267874479293823 2.2180527448654175 2.2073965072631836
          2.44974946975708 2.644770622253418 2.6230850219726562 2.9171231985092163 3.286455512046814 3.470602869987488
          3.8581658601760864 4.327048301696777 4.806009292602539 5.711601257324219 6.307856559753418 8.002522230148315
          8.674789428710938 10.056403160095215 12.369238376617432 12.355393409729004 18.258386611938477 17.460425853729248
          18.8605375289917 14.39867353439331 12.783767700195312 11.916728019714355 9.784270286560059 9.142054080963135
          7.624375820159912 7.502980947494507 6.730642795562744 5.748171806335449 5.065258502960205 4.479765176773071
          4.117976665496826 3.632581949234009 3.30171537399292 2.9173030853271484 2.6637160778045654 2.6364099979400635
          2.393744111061096 2.3124616146087646 2.141295075416565 1.9401019215583801 2.2513630390167236 2.0146350860595703
          1.9913760423660278 2.011473774909973 1.9406618475914001 2.0071449875831604 2.065410614013672 2.1433976888656616
          2.219524383544922 2.353361129760742 2.3970319032669067 2.6788395643234253 2.8307355642318726 3.0552029609680176
          3.1101393699645996 3.488354444503784 3.983735680580139 4.499148845672607 5.111236572265625 5.683396577835083
          6.436131715774536 7.341910123825073 9.198722839355469 10.9631028175354 11.710220336914062 15.050463199615479
          15.137731552124023 19.59363555908203 18.789417266845703 15.679894924163818 12.636431217193604 11.645270824432373
          9.547928810119629 8.918391704559326 7.977418661117554 7.3485026359558105 6.428678512573242 5.568113565444946
          5.172069549560547 4.395718336105347 3.956266403198242 3.617715835571289 3.2122572660446167 3.0214903354644775
          2.7147324085235596 2.5271620750427246 2.4166603088378906 2.2299437522888184 2.1063420176506042 2.038277506828308
          2.035901427268982 1.96027410030365 1.925901710987091 2.034769058227539 2.129698395729065 1.872981309890747
          2.1165727376937866 2.1322498321533203 2.269805669784546 2.3230371475219727 2.449185609817505 2.6169066429138184
          2.8627501726150513 3.0421444177627563 3.2488937377929688 3.6276471614837646 3.8618690967559814 4.1410053968429565
          4.678374290466309 5.6069276332855225 6.450258016586304 7.521150588989258 8.768019199371338 10.530420780181885
          12.762195587158203 13.978662014007568 15.855955600738525 18.86258602142334 18.87624740600586 15.481395244598389
          13.824666976928711 11.0394287109375 9.771485805511475 9.042028903961182 8.14668869972229 7.104444265365601
          6.44014835357666 5.592142343521118 4.881511449813843 4.549996614456177 3.9595837593078613 3.6229450702667236
          3.2439632415771484 2.9224249124526978 2.9180651903152466 2.5139856338500977 2.2698585987091064 2.2725189924240112
          2.29300594329834 2.051710307598114 1.9925444722175598 1.8593153357505798 1.891184687614441 2.2261732816696167
          2.156647503376007 2.0160356163978577 2.0653587579727173 2.137767791748047 2.2755825519561768 2.479614019393921
          2.528022289276123 2.5387877225875854 2.8365520238876343 2.9711090326309204 3.29293155670166 3.611027479171753
          3.8189237117767334 4.523218870162964 5.103663682937622 5.857767343521118 6.8451619148254395 7.989723205566406
          8.446786880493164 10.032856464385986 12.42374563217163 13.870588779449463 16.6564302444458 18.012065887451172
          18.659080505371094 15.70541524887085 14.091103076934814 11.941722869873047 10.073433876037598 9.495868682861328
          8.134617567062378 7.207005739212036 6.687721252441406 5.5353240966796875 5.0553905963897705 4.751773357391357
          4.020200610160828 3.5889155864715576 3.2992615699768066 2.8338171243667603 2.798974394798279 2.436057925224304
          2.4128525257110596 2.329744338989258 2.2925424575805664 2.147569179534912 2.173554837703705 2.195960283279419
          1.884503722190857 2.0531591176986694 2.0719215869903564 2.2067431211471558 2.2777141332626343 2.2843074798583984
          2.2376623153686523 2.3247833251953125 2.5535229444503784 2.7279876470565796 2.8367421627044678 3.042559027671814
          3.469337224960327 3.5225805044174194 4.071752548217773 4.523852586746216 5.346035718917847 5.9058473110198975
          6.742000102996826 8.136955499649048 8.97847604751587 9.086217880249023 11.608289241790771 15.140835285186768
          16.921088218688965 17.12171506881714 20.372398376464844 17.31625747680664 14.15779733657837 12.400227069854736
          10.23023509979248 9.667316436767578 8.263310432434082 7.531312942504883 6.06127142906189 5.620272874832153
          5.028686761856079 4.719818592071533 4.029904723167419 3.800982713699341 3.2406827211380005 2.9021626710891724
          2.9062764644622803 2.546222686767578 2.3465657234191895 2.2936201095581055 2.195075035095215 2.3197025060653687
          1.9662606716156006 2.0182912349700928 2.066898822784424 1.9780488014221191 1.9282195568084717 2.2429912090301514
          2.1136873960494995 2.310949206352234 2.292532444000244 2.574070453643799 2.637230634689331 2.7044697999954224
          2.97323739528656 3.1818766593933105 3.539739489555359 3.638667106628418 4.249982118606567 4.5264832973480225
          5.232430696487427 6.339192152023315 6.986841678619385 8.061053991317749 10.084085941314697 10.284504890441895
          12.481759071350098 14.39990520477295 16.694204330444336 20.20294189453125 20.889086723327637 17.485011100769043
          14.980132102966309 12.300177574157715 10.956344604492188 9.591424465179443 7.919713020324707 7.424645185470581
          6.410725355148315 5.558023452758789 5.135552883148193 4.580712080001831 4.180749297142029 3.806628108024597
          3.2677009105682373 3.000831961631775 2.9011447429656982 2.61216938495636 2.5233410596847534 2.36424458026886
          2.2404286861419678 2.286455750465393 2.12390798330307 2.294763922691345 1.9710426926612854 2.067238926887512